10
ANG Step:        338 Time:     6986.5939692906
N     0.09073025    -0.37852495    -0.52956315
N     1.06449895     0.38811557    -0.86808326
C    -1.19461348     0.08812731    -0.64819628
C     2.52298721    -0.10576780    -0.70240470
H    -1.81945396     0.27017001     0.21197434
H    -1.09320425     0.96335694    -1.23781316
H    -1.89819597    -0.39087606    -1.33174870
H     2.75602886    -0.88259420    -1.41404854
H     3.17867786     0.60434441    -1.19750725
H     2.80908460    -0.49163530     0.24903794
