10
ANG Step:        378 Time:     7813.4098236445
N     0.05776838    -0.33646640    -0.23771616
N     1.17577010     0.22599862    -0.36914453
C    -1.20128009     0.13738753    -0.98679478
C     2.45105904    -0.02484320    -1.05996146
H    -1.93350352     0.19666784    -0.23549852
H    -1.11596586     1.06024541    -1.53142749
H    -1.69729780    -0.59569424    -1.80312750
H     2.45907052    -0.84983295    -1.72763445
H     2.81962359     0.66417576    -1.81091625
H     3.24876895    -0.28494458    -0.31049208
