10
ANG Step:        566 Time:    11699.4443391079
N     0.03954871    -0.26853742    -0.25643272
N     1.17889079     0.31970558    -0.44443344
C    -1.21859519     0.14105915    -0.90044815
C     2.50131416    -0.17561585    -1.08491082
H    -2.18213066    -0.44671082    -0.65902989
H    -1.35557915     1.08897769    -0.46651349
H    -1.00839143     0.17954322    -2.06963300
H     2.35892068    -1.21626304    -0.61783585
H     2.44159813    -0.36363262    -2.19203918
H     3.34386069     0.45347318    -0.84147843
