          10
ANG Step:          0 Time:        0.0000000000
N         -0.0237875263        -0.0526544287        -0.0405580833
N          1.2624709414         0.0898032720        -0.0105129625
C         -0.7199968219        -0.0484689916        -1.2245487427
C          1.9584994384        -0.0083275347        -1.2850323852
H         -1.6990352327         0.1900723093        -1.3036533586
H         -0.4350331012         0.9850788946        -1.7486019654
H         -0.3058664692        -0.8519215679        -1.8337648243
H          1.4368843362        -0.6301076274        -1.9627596060
H          2.0061080884         0.9885830637        -1.7232363374
H          2.8404116695        -0.5239830591        -1.0535504671
          10
ANG Step:          1 Time:       20.6703963588
N         -0.0193289900        -0.0564739648        -0.0446353025
N          1.2580760480         0.0912707689        -0.0111208121
C         -0.7215326919        -0.0425124422        -1.2182839604
C          1.9580692166        -0.0048911580        -1.2835489075
H         -1.7001254891         0.1702789810        -1.3121835686
H         -0.4314416285         0.9578264157        -1.7629359498
H         -0.3056622055        -0.8441018227        -1.8397239827
H          1.4507417048        -0.6256346651        -1.9429251438
H          2.0145707677         0.9703056622        -1.7321515779
H          2.8379117994        -0.5501173054        -1.0628210169
          10
ANG Step:          2 Time:       41.3407927177
N         -0.0145414736        -0.0602997032        -0.0482948006
N          1.2533528686         0.0927404902        -0.0116825440
C         -0.7224048189        -0.0359902439        -1.2128673602
C          1.9577387861        -0.0014611903        -1.2818028406
H         -1.7104634582         0.1482719495        -1.3179240214
H         -0.4274711788         0.9263618776        -1.7760658011
H         -0.3090164388        -0.8360553544        -1.8460207780
H          1.4623981988        -0.6234376163        -1.9257371199
H          2.0250149410         0.9525474551        -1.7411221507
H          2.8389576257        -0.5748992987        -1.0725182316
          10
ANG Step:          3 Time:       62.0111890765
N         -0.0094984438        -0.0641332310        -0.0514962543
N          1.2483876804         0.0942385072        -0.0122163880
C         -0.7226737994        -0.0290226921        -1.2083876086
C          1.9576635578         0.0018450718        -1.2796657884
H         -1.7293231892         0.1241600564        -1.3206583677
H         -0.4231529033         0.8919624305        -1.7879219636
H         -0.3159094775        -0.8278618651        -1.8523191591
H          1.4706755518        -0.6244535878        -1.9123259647
H          2.0375029442         0.9365792213        -1.7504718526
H          2.8426436571        -0.5974802220        -1.0825898704
          10
ANG Step:          4 Time:       82.6815854354
N         -0.0042837593        -0.0679811290        -0.0542078499
N          1.2432786333         0.0957931703        -0.0127434844
C         -0.7225095071        -0.0217353924        -1.2049065509
C          1.9579704748         0.0048947431        -1.2770479670
H         -1.7548273304         0.0979903780        -1.3201146090
H         -0.4184771478         0.8561937212        -1.7986325155
H         -0.3262248501        -0.8197306776        -1.8583313878
H          1.4747885370        -0.6292371035        -1.9033846349
H          2.0520569410         0.9235092338        -1.7604987652
H          2.8480420779        -0.6170418935        -1.0929575159
          10
ANG Step:          5 Time:      103.3519817942
N          0.0010077446        -0.0718546276        -0.0564089058
N          1.2381352049         0.0974349850        -0.0132865631
C         -0.7221538384        -0.0142730351        -1.2024481788
C          1.9587408245         0.0075460955        -1.2739200445
H         -1.7843855858         0.0699030900        -1.3160230525
H         -0.4133732632         0.8208941216        -1.8085649099
H         -0.3397637889        -0.8119802229        -1.8638207123
H          1.4744746892        -0.6377843776        -1.8990257905
H          2.0686401618         0.9141105612        -1.7713853040
H          2.8543013086        -0.6328787692        -1.1035002063
          10
ANG Step:          6 Time:      124.0223781531
N          0.0062702825        -0.0757689786        -0.0580919519
N          1.2330767898         0.0991962439        -0.0138685568
C         -0.7218754764        -0.0068035678        -1.2009903609
C          1.9600070077         0.0096611795        -1.2703213926
H         -1.8152062903         0.0402277746        -1.3081909365
H         -0.4077024286         0.7880903908        -1.8183299958
H         -0.3562625172        -0.8050069677        -1.8686002641
H          1.4700053246        -0.6494969760        -1.8987824775
H          2.0871322706         0.9086891853        -1.7831139835
H          2.8607003893        -0.6444496405        -1.1140510426
          10
ANG Step:          7 Time:      144.6927745119
N          0.0113884452        -0.0797426181        -0.0592637257
N          1.2282301547         0.1011103910        -0.0145113395
C         -0.7219315562         0.0004916350        -1.2004660606
C          1.9617614035         0.0111222518        -1.2663525152
H         -1.8446971643         0.0094962345        -1.2965537527
H         -0.4012798813         0.7598217205        -1.8287130173
H         -0.3754089197        -0.7992464438        -1.8725297301
H          1.4620785694        -0.6633046770        -1.9017509739
H          2.1073070460         0.9070409547        -1.7954202000
H          2.8666728584        -0.6514030229        -1.1244019009
          10
ANG Step:          8 Time:      165.3631708708
N          0.0162402830        -0.0837961672        -0.0599447864
N          1.2237255885         0.1032111400        -0.0152347271
C         -0.7225410843         0.0074391174        -1.2007772200
C          1.9639706825         0.0118459873        -1.2621561244
H         -1.8706916668        -0.0216031116        -1.2811887860
H         -0.3939392814         0.7378807145        -1.8405102576
H         -0.3968568110        -0.7951290062        -1.8755105358
H          1.4516483915        -0.6778855446        -1.9068054389
H          2.1288232087         0.9085153657        -1.8078031119
H          2.8718156094        -0.6535854857        -1.1343117941
          10
ANG Step:          9 Time:      186.0335672296
N          0.0207021791        -0.0879512741        -0.0601678354
N          1.2196917935         0.1055314009        -0.0160558090
C         -0.7238685203         0.0138982945        -1.2018183257
C          1.9665885825         0.0117903949        -1.2578944992
H         -1.8915297024        -0.0522915499        -1.2622992332
H         -0.3856325714         0.7235313492        -1.8542956889
H         -0.4202370595        -0.7930335883        -1.8774800092
H          1.4397562405        -0.6918902815        -1.9127992936
H          2.1512351567         0.9121612889        -1.8195916752
H          2.8758938814        -0.6510415203        -1.1435161394
          10
ANG Step:         10 Time:      206.7039635885
N          0.0246551752        -0.0922292770        -0.0599751561
N          1.2162497673         0.1081020724        -0.0169886063
C         -0.7260155504         0.0197797670        -1.2035007310
C          1.9695633930         0.0109538773        -1.2537295220
H         -1.9060516664        -0.0817611636        -1.2401847563
H         -0.3765296184         0.7173040098        -1.8702012638
H         -0.4451653126        -0.7932440255        -1.8784053116
H          1.4274066714        -0.7041070781        -1.9187035265
H          2.1740218788         0.9169024422        -1.8300410212
H          2.8788481740        -0.6440104820        -1.1517357205
          10
ANG Step:         11 Time:      227.3743599473
N          0.0279920936        -0.0966496970        -0.0594157060
N          1.2135061816         0.1109507729        -0.0180440031
C         -0.7290208227         0.0250494535        -1.2057672656
C          1.9728401040         0.0093693890        -1.2498084882
H         -1.9135564491        -0.1092206528        -1.2152109766
H         -0.3670675082         0.7189523398        -1.8878149979
H         -0.4712465633        -0.7959136290        -1.8782782800
H          1.4154953788        -0.7135512076        -1.9236760058
H          2.1966255283         0.9216933255        -1.8384285444
H          2.8808038115        -0.6329223166        -1.1586852390
          10
ANG Step:         12 Time:      248.0447563062
N          0.0306246793        -0.1012286501        -0.0585423088
N          1.2115469010         0.1141005790        -0.0192298604
C         -0.7328670800         0.0297182724        -1.2085919366
C          1.9763592890         0.0070971525        -1.2462558385
H         -1.9137555821        -0.1339264711        -1.1877840945
H         -0.3579208501         0.7275812998        -1.9062463424
H         -0.4980775873        -0.8010437052        -1.8771123980
H          1.4047778210        -0.7194955617        -1.9270809256
H          2.2184898947         0.9256290294        -1.8441284554
H          2.8820797757        -0.6183901989        -1.1640817751
          10
ANG Step:         13 Time:      268.7151526650
N          0.0324899625        -0.1059773407        -0.0574091900
N          1.2104313552         0.1175688599        -0.0205512158
C         -0.7374927094         0.0338240086        -1.2119680101
C          1.9800552927         0.0042178842        -1.2431693583
H         -1.9067404837        -0.1552045509        -1.1583313591
H         -0.3499082380         0.7418768855        -1.9243164755
H         -0.5252492129        -0.8084795751        -1.8749424895
H          1.3958614876        -0.7214673275        -1.9284820345
H          2.2390922842         0.9280063068        -1.8466579907
H          2.8831894322        -0.6011950714        -1.1676535385
          10
ANG Step:         14 Time:      289.3855490239
N          0.0335551376        -0.1109008268        -0.0560699244
N          1.2101884282         0.1213663029        -0.0220104855
C         -0.7428032364         0.0374138080        -1.2158926595
C          1.9838560523         0.0008267834        -1.2406189470
H         -1.8929694187        -0.1724686377        -1.1272847247
H         -0.3438786861         0.7603438895        -1.9407793276
H         -0.5523507250        -0.8179240308        -1.8718267934
H          1.3892074405        -0.7192320899        -1.9276280426
H          2.2579667805         0.9283472906        -1.8456990774
H          2.8848218322        -0.5822548283        -1.1691491869
          10
ANG Step:         15 Time:      310.0559453827
N          0.0338203863        -0.1159972184        -0.0545758029
N          1.2108143809         0.1254962288        -0.0236076216
C         -0.7486793145         0.0405325778        -1.2203551778
C          1.9876864183        -0.0029723916        -1.2386463279
H         -1.8732737498        -0.1852398126        -1.0950633056
H         -0.3406170824         0.7814901228        -1.9544965616
H         -0.5789783097        -0.8289643078        -1.8678499478
H          1.3851314202        -0.7127789355        -1.9244413339
H          2.2747201148         0.9264006939        -1.8411034309
H          2.8877901259        -0.5625711271        -1.1683479092
          10
ANG Step:         16 Time:      330.7263417416
N          0.0333193611        -0.1212574029        -0.0529745843
N          1.2122730438         0.1299542674        -0.0253402267
C         -0.7549803836         0.0432182893        -1.2253316843
C          1.9914761559        -0.0070738277        -1.2372645421
H         -1.8488760447        -0.1931690494        -1.0620499102
H         -0.3407847733         0.8039411419        -1.9645388417
H         -0.6047482039        -0.8411065074        -1.8631249839
H          1.3837987734        -0.7023133898        -1.9190155496
H          2.2890427738         0.9221328966        -1.8328887072
H          2.8929362505        -0.5431512134        -1.1650707047
          10
ANG Step:         17 Time:      351.3967381004
N          0.0321173316        -0.1266653242        -0.0513096069
N          1.2144982272         0.1347284231        -0.0272036631
C         -0.7615457224         0.0455023403        -1.2307858200
C          1.9951725019        -0.0113766311        -1.2364565724
H         -1.8214030223        -0.1960604571        -1.0285586855
H         -0.3448916063         0.8264985658        -1.9702240186
H         -0.6293137016        -0.8538112654        -1.8577926786
H          1.3852105874        -0.6882598354        -1.9116236561
H          2.3007180159         0.9157166998        -1.8212308900
H          2.9009930666        -0.5249119685        -1.1591936664
          10
ANG Step:         18 Time:      372.0671344593
N          0.0303072777        -0.1321987853        -0.0496192215
N          1.2173980286         0.1397995020        -0.0291912228
C         -0.7681964867         0.0474120689        -1.2366732220
C          1.9987551281        -0.0157911036        -1.2361729796
H         -1.7928633446        -0.1938871531        -0.9947962782
H         -0.3532875636         0.8481633903        -1.9711168181
H         -0.6523838423        -0.8665258838        -1.8520174593
H          1.3891816129        -0.6712706421        -1.9027346449
H          2.3096305727         0.9075210511        -1.8064552043
H          2.9124263833        -0.5085858076        -1.1506640111
          10
ANG Step:         19 Time:      392.7375308181
N          0.0280044674        -0.1378306752        -0.0479365222
N          1.2208604682         0.1451418130        -0.0312944212
C         -0.7747433939         0.0489724715        -1.2429467034
C          2.0022492273        -0.0202426197        -1.2363291280
H         -1.7655477536        -0.1867859952        -0.9608297854
H         -0.3661624116         0.8681428218        -1.9670124911
H         -0.6737407024        -0.8787106176        -1.8459803409
H          1.3953150893        -0.6522343258        -1.8930326770
H          2.3157754070         0.8981012359        -1.7890253780
H          2.9273011742        -0.4946555014        -1.1395181421
          10
ANG Step:         20 Time:      413.4079271770
N          0.0253401024        -0.1435304754        -0.0462893882
N          1.2247597997         0.1507240315        -0.0335034360
C         -0.7810042736         0.0502048395        -1.2495583501
C          2.0057316166        -0.0246721605        -1.2368035952
H         -1.7418103909        -0.1750171081        -0.9265891013
H         -0.3835454893         0.8858534870        -1.9579194871
H         -0.6932519570        -0.8898594379        -1.8398706530
H          1.4029864171        -0.6322689290        -1.8834260117
H          2.3192649745         0.8881855174        -1.7695289391
H          2.9452212154        -0.4833388428        -1.1258979703
          10
ANG Step:         21 Time:      434.0783235358
N          0.0224545759        -0.1492658502        -0.0447008925
N          1.2289628371         0.1565101167        -0.0358076474
C         -0.7868322203         0.0511216834        -1.2564547172
C          2.0093261609        -0.0290344552        -1.2374404360
H         -1.7237264171        -0.1588874466        -0.8919376153
H         -0.4053021200         0.9009290079        -1.9440490578
H         -0.7108759894        -0.8995174391        -1.8338791097
H          1.4113561755        -0.6126807185        -1.8750251010
H          2.3203312698         0.8786509617        -1.7486547014
H          2.9653686506        -0.4746247153        -1.1100590163
          10
ANG Step:         22 Time:      454.7487198947
N          0.0194908041        -0.1550041028        -0.0431901505
N          1.2333347065         0.1624602177        -0.0381961604
C         -0.7921480984         0.0517200230        -1.2635636679
C          2.0131878902        -0.0332963982        -1.2380584907
H         -1.7126992664        -0.1386660431        -0.8568232184
H         -0.4311272176         0.9132362522        -1.9258139025
H         -0.7266583407        -0.9072975875        -1.8281945962
H          1.4194392048        -0.5948666457        -1.8690636865
H          2.3193172900         0.8704786152        -1.7271580754
H          2.9866296140        -0.4683413776        -1.0923643946
          10
ANG Step:         23 Time:      475.4191162535
N          0.0165880078        -0.1607133065        -0.0417736272
N          1.2377436353         0.1685315513        -0.0406581648
C         -0.7969641887         0.0519773660        -1.2707768017
C          2.0174784083        -0.0374381115        -1.2384698690
H         -1.7091696410        -0.1145420563        -0.8214648388
H         -0.4605406428         0.9229005138        -1.9038325408
H         -0.7407203854        -0.9128986581        -1.8230058834
H          1.4262499526        -0.5801506514        -1.8667434834
H          2.3166526185         0.8646778609        -1.7058112223
H          3.0077605654        -0.4642296657        -1.0732633252
          10
ANG Step:         24 Time:      496.0895126123
N          0.0138763297        -0.1663630054        -0.0404667878
N          1.2420645868         0.1746792807        -0.0431830263
C         -0.8013861362         0.0518538886        -1.2779365682
C          2.0223377995        -0.0414562544        -1.2385063731
H         -1.7125720345        -0.0866620704        -0.7864780902
H         -0.4928920741         0.9303334804        -1.8789302265
H         -0.7532430002        -0.9161242319        -1.8185076507
H          1.4310142327        -0.5695748765        -1.8690124813
H          2.3128112211         0.8621749616        -1.6853394295
H          3.0275457626        -0.4620010071        -1.0532584878
          10
ANG Step:         25 Time:      516.7599089712
N          0.0114726630        -0.1719245037        -0.0392858344
N          1.2461817933         0.1808574243        -0.0457601081
C         -0.8055907311         0.0513005846        -1.2848364913
C          2.0278602954        -0.0453656062        -1.2380475123
H         -1.7215617222        -0.0552290353        -0.7528602458
H         -0.5273845248         0.9362481275        -1.8521219059
H         -0.7644486512        -0.9169011366        -1.8149089117
H          1.4333873297        -0.5637081186        -1.8763360116
H          2.3082565530         0.8636735545        -1.6663521210
H          3.0449145949        -0.4613737825        -1.0328697070
          10
ANG Step:         26 Time:      537.4303053300
N          0.0094779504        -0.1773708833        -0.0382492099
N          1.2499904020         0.1870198226        -0.0483784378
C         -0.8097894463         0.0502704790        -1.2912360529
C          2.0340810985        -0.0491941322        -1.2370402062
H         -1.7343910143        -0.0206021378        -0.7218399101
H         -0.5631232564         0.9416333679        -1.8245606567
H         -0.7745846848        -0.9152945925        -1.8124412288
H          1.4335840671        -0.5625516618        -1.8885542621
H          2.3033874596         0.8695140522        -1.6492840823
H          3.0590114600        -0.4620919794        -1.0126007964
          10
ANG Step:         27 Time:      558.1007016889
N          0.0079759704        -0.1826769353        -0.0373786242
N          1.2533975133         0.1931211686        -0.0510263984
C         -0.8141918426         0.0487311271        -1.2968848926
C          2.0409778160        -0.0529706574        -1.2355023286
H         -1.7492702936         0.0166541451        -0.6946712824
H         -0.5991890604         0.9476563661        -1.7974411896
H         -0.7839092706        -0.9115165011        -1.8113639412
H          1.4323527005        -0.5655868319        -1.9048964730
H          2.2985024174         0.8795740021        -1.6343643051
H          3.0692275389        -0.4639338276        -0.9929132149
          10
ANG Step:         28 Time:      578.7710980477
N          0.0070333100        -0.1878191789        -0.0366995163
N          1.2563228736         0.1991180944        -0.0536916098
C         -0.8189784007         0.0466788394        -1.3015488745
C          2.0484831306        -0.0567100858        -1.2335098145
H         -1.7646135322         0.0557817438        -0.6724576741
H         -0.6347221891         0.9554742342        -1.7718654220
H         -0.7926803126        -0.9059222316        -1.8119635418
H          1.4308057714        -0.5719370194        -1.9241436088
H          2.2937944124         0.8932484959        -1.6216225611
H          3.0752098034        -0.4667169934        -0.9742067311
          10
ANG Step:         29 Time:      599.4414944066
N          0.0067000586        -0.1927760584        -0.0362409857
N          1.2586993692         0.2049702750        -0.0563611031
C         -0.8242858551         0.0441539970        -1.3050319431
C          2.0565008682        -0.0604032346        -1.2311744515
H         -1.7791551106         0.0958800154        -0.6560449018
H         -0.6689910992         0.9659788511        -1.7487024969
H         -0.8011469567        -0.8989901571        -1.8145444272
H          1.4301905566        -0.5805677804        -1.9448608384
H          2.2893754354         0.9095235230        -1.6109298297
H          3.0768607161        -0.4703041351        -0.9568050829
          10
ANG Step:         30 Time:      620.1118907654
N          0.0070107357        -0.1975283143        -0.0360352937
N          1.2604733559         0.2106414658        -0.0590218058
C         -0.8302039293         0.0412525750        -1.3071898129
C          2.0649187363        -0.0640149763        -1.2286214669
H         -1.7919738395         0.1359691563        -0.6459817866
H         -0.7014200078         0.9795537442        -1.7284924767
H         -0.8095430540        -0.8912783290        -1.8194086098
H          1.4316870436        -0.5904548959        -1.9656113503
H          2.2853169838         0.9271191512        -1.6020565268
H          3.0743367630        -0.4746102288        -0.9409440727
          10
ANG Step:         31 Time:      640.7822871243
N          0.0079851391        -0.2020594543        -0.0361170260
N          1.2616047565         0.2161003589        -0.0616612863
C         -0.8367801845         0.0381263843        -1.3079341377
C          2.0736154576        -0.0674893315        -1.2259728669
H         -1.8024684388         0.1750485480        -0.6425249605
H         -0.7315676252         0.9959461969        -1.7114317627
H         -0.8180819450        -0.8833557931        -1.8268230029
H          1.4362779059        -0.6006899962        -1.9851027477
H          2.2816894711         0.9446572410        -1.5947297850
H          3.0680477319        -0.4796113964        -0.9267604190
          10
ANG Step:         32 Time:      661.4526834831
N          0.0096289903        -0.2063562168        -0.0365219897
N          1.2620668515         0.2213211536        -0.0642686537
C         -0.8440285373         0.0349679126        -1.3072290724
C          2.0824636972        -0.0707575737        -1.2233380049
H         -1.8103176702         0.2121437266        -0.6456640796
H         -0.7590756203         1.0143141584        -1.6974393693
H         -0.8269520637        -0.8757137675        -1.8369753683
H          1.4446897130        -0.6105285369        -2.0022622052
H          2.2785892284         0.9608109549        -1.5886773037
H          3.0586531961        -0.4853536204        -0.9142813731
          10
ANG Step:         33 Time:      682.1230798420
N          0.0119344243        -0.2104089369        -0.0372859196
N          1.2618457327         0.2262837899        -0.0668354717
C         -0.8519371897         0.0319833282        -1.3050844941
C          2.0913316067        -0.0737459830        -1.2208098088
H         -1.8154449369         0.2463429979        -0.6551502137
H         -0.7836177875         1.0334198023        -1.6862654114
H         -0.8363129938        -0.8686726372        -1.8499242948
H          1.4573823398        -0.6194000900        -2.0162608822
H          2.2761504805         0.9744128366        -1.5836543798
H          3.0470477816        -0.4919581173        -0.9034173228
          10
ANG Step:         34 Time:      702.7934762008
N          0.0148804130        -0.2142117697        -0.0384430995
N          1.2609394908         0.2309738788        -0.0693565577
C         -0.8604733969         0.0293629055        -1.3015498343
C          2.1000856309        -0.0763818994        -1.2184639479
H         -1.8179973277         0.2768281544        -0.6705177282
H         -0.8048713412         1.0518793209        -1.6775946465
H         -0.8462917366        -0.8623093200        -1.8655535999
H          1.4745618360        -0.6269007549        -2.0265122073
H          2.2745456127         0.9845192240        -1.5794571481
H          3.0343233905        -0.4996181902        -0.8939618767
          10
ANG Step:         35 Time:      723.4638725597
N          0.0184331812        -0.2177627884        -0.0400250375
N          1.2593572959         0.2353824359        -0.0718305749
C         -0.8695845704         0.0272578672        -1.2967100798
C          2.1085964697        -0.0785984727        -1.2163582953
H         -1.8183428479         0.3029045630        -0.6910963251
H         -0.8225134198         1.0683806829        -1.6711167630
H         -0.8569790635        -0.8564290545        -1.8835444198
H          1.4961991868        -0.6327817171        -2.0326631212
H          2.2739788253         0.9904416067        -1.5759273747
H          3.0216960164        -0.5085807386        -0.8856055733
          10
ANG Step:         36 Time:      744.1342689185
N          0.0225466148        -0.2210640180        -0.0420593244
N          1.2571185514         0.2395055499        -0.0742604050
C         -0.8791965005         0.0257680005        -1.2906832221
C          2.1167490177        -0.0803392419        -1.2145307406
H         -1.8170853383         0.3240347595        -0.7160149396
H         -0.8362342802         1.0818252447        -1.6665592264
H         -0.8684260605        -0.8505932050        -1.9033757312
H          1.5220455801        -0.6369421384        -2.0345899092
H          2.2746773535         0.9917590337        -1.5729536353
H          3.0103904834        -0.5191061132        -0.8779687353
          10
ANG Step:         37 Time:      764.8046652774
N          0.0271626486        -0.2241214874        -0.0445687562
N          1.2542522596         0.2433440997        -0.0766533392
C         -0.8892099822         0.0249394473        -1.2836175130
C          2.1244555371        -0.0815634394        -1.2129944413
H         -1.8150915947         0.3398766544        -0.7442040396
H         -0.8457573266         1.0913924584        -1.6636922632
H         -0.8806412417        -0.8441957927        -1.9243561321
H          1.5516413266        -0.6394302231        -2.0324039141
H          2.2768828983         0.9883236683        -1.5704723368
H          3.0014907699        -0.5314048794        -0.8706544036
          10
ANG Step:         38 Time:      785.4750616362
N          0.0322116450        -0.2269453724        -0.0475707339
N          1.2507966670         0.2469035896        -0.0790211577
C         -0.8994974902         0.0247694434        -1.2756870365
C          2.1316693337        -0.0822518816        -1.2117309786
H         -1.8135172484         0.3503219171        -0.7744080707
H         -0.8508597405         1.0965489257        -1.6623183028
H         -0.8935887072        -0.8365666056        -1.9456802119
H          1.5843204805        -0.6404530051        -2.0264670443
H          2.2808445943         0.9802668076        -1.5684704211
H          2.9957843134        -0.5455603754        -0.8633133293
          10
ANG Step:         39 Time:      806.1454579951
N          0.0376128624        -0.2295502699        -0.0510769017
N          1.2467991737         0.2501941174        -0.0813801492
C         -0.9099023082         0.0252148668        -1.2670844705
C          2.1383946111        -0.0824121138        -1.2106832877
H         -1.8138056918         0.3555220286        -0.8052246237
H         -0.8513911955         1.0970263361        -1.6622554952
H         -0.9071877250        -0.8270750266        -1.9664967427
H          1.6192173012        -0.6403919472        -2.0174115137
H          2.2868140726         0.9680073805        -1.5669902952
H          2.9936447745        -0.5614580596        -0.8557035506
          10
ANG Step:         40 Time:      826.8158543539
N          0.0432751691        -0.2319556008        -0.0550929672
N          1.2423164252         0.2532304575        -0.0837510710
C         -0.9202436263         0.0262031624        -1.2580101345
C          2.1446882403        -0.0820809494        -1.2097512338
H         -1.8176199082         0.3558810838        -0.8351880071
H         -0.8472900755         1.0927876379        -1.6633215390
H         -0.9213138564        -0.8152155937        -1.9859758109
H          1.6552845209        -0.6398164959        -2.0061512389
H          2.2950426016         0.9522590956        -1.5661360712
H          2.9949942136        -0.5787479030        -0.8477243469
          10
ANG Step:         41 Time:      847.4862507128
N          0.0490981881        -0.2341860927        -0.0596186640
N          1.2374144500         0.2560322148        -0.0861589894
C         -0.9303314422         0.0276457470        -1.2486571060
C          2.1506513729        -0.0813233257        -1.2087928816
H         -1.8266628438         0.3519931845        -0.8629048542
H         -0.8385969649         1.0839941722        -1.6653217200