10
ANG Step:        534 Time:    11037.9916556247
N     0.13559513    -0.28476958    -0.70877338
N     1.21890565     0.27779677    -0.19989122
C    -1.32606741     0.21514624    -0.89404992
C     2.47734638    -0.19804660    -0.88643157
H    -1.84977504    -0.41142511    -0.19081292
H    -1.71260351     1.27261564    -0.84032936
H    -1.74781506    -0.15289159    -1.75695948
H     3.12560979     0.60967114    -0.99271261
H     3.06097067    -1.12406904    -0.56839660
H     2.39477584    -0.30223049    -2.04048528
