10
ANG Step:        336 Time:     6945.2531765729
N     0.11078917     0.01867874    -1.22490116
N     1.25660786     0.51567441    -1.11156461
C    -0.95688209    -0.13161920    -0.26546667
C     2.11583734    -0.33539565    -0.32550536
H    -0.55358935    -0.80333336     0.54572455
H    -1.12726268     0.92832455    -0.05960812
H    -1.92422824    -0.54780777    -0.79515959
H     1.75129933    -0.03244614     0.73343791
H     1.75949906    -1.32527607    -0.55691279
H     3.09547848    -0.08520939    -0.58263467
