10
ANG Step:        542 Time:    11203.3548264955
N     0.13220064    -0.30486458    -0.66615049
N     1.23194969     0.25094066    -0.22889641
C    -1.32601299     0.23274335    -0.90018635
C     2.45779292    -0.16989426    -0.91137941
H    -1.79234727    -0.47318584    -0.11153274
H    -1.44159861     1.26659038    -0.86107103
H    -1.79438484    -0.10082854    -1.97292761
H     3.05571089     0.75603266    -0.87135972
H     2.92880475    -1.08084074    -0.50584129
H     2.41305020    -0.36846030    -1.88603585
