10
ANG Step:        374 Time:     7730.7282382091
N     0.04046346    -0.02463815    -1.32697491
N     1.15073849     0.43952582    -0.86086864
C    -1.12837303     0.00915812    -0.33138298
C     2.41520367    -0.35228507    -0.38529649
H    -0.57967842    -0.63829643     0.46335348
H    -1.46551128     0.95001540    -0.18780949
H    -1.93823260    -0.66961683    -0.81117197
H     2.53081050     0.08017769     0.61230088
H     2.15106097    -1.43269984    -0.47052674
H     3.22815423     0.02951546    -0.88942730
