10
ANG Step:        232 Time:     4795.5319552527
N    -0.04835935     0.00567940    -1.41684777
N     1.16789795     0.33192985    -0.94239109
C    -1.03108257    -0.02740274    -0.30520134
C     2.35883113    -0.26137993    -0.28667677
H    -0.85457129    -0.77013600     0.45724765
H    -0.87323102     1.00598256     0.29990336
H    -2.14186591    -0.11654356    -0.62503999
H     2.37335579    -0.78122454     0.68628098
H     2.83454439    -0.99086480    -1.02006625
H     3.09732871     0.39832153    -0.18655675
