10
ANG Step:        194 Time:     4010.0568936165
N     0.07985840    -0.17075103    -1.21792485
N     1.10789402     0.31126979    -0.70220997
C    -1.07488994     0.07439253    -0.43775334
C     2.37523648    -0.21078206    -0.50866450
H    -1.30313535    -0.56885520     0.28207601
H    -1.05597875     1.20982322     0.02453397
H    -1.98062816     0.10549048    -1.19201394
H     2.52154767    -1.03143295     0.25783250
H     2.58443853    -0.55407039    -1.52135727
H     3.04792013     0.50844508    -0.11902782
