          10
ANG Step:          0 Time:        0.0000000000
N          0.0193635836        -0.0426566996        -0.0054868480
N          1.2421677666         0.0649951958        -0.0103540612
C         -0.7133354387         0.0125841727        -1.3017446799
C          1.9478224680        -0.0397998094        -1.2617450532
H         -1.8262143492        -0.2354139323        -0.8950452770
H         -0.5671236119         1.1303952847        -1.7994438934
H         -0.4850586305        -0.7505399250        -1.9759031296
H          1.7285026720        -0.8960796067        -1.8898676363
H          1.7463047542         0.8537863725        -1.9318349238
H          2.9774275659        -0.0909333988        -0.9811206596
          10
ANG Step:          1 Time:       20.6703963588
N          0.0155340513        -0.0437399842        -0.0019674836
N          1.2420098283         0.0676785846        -0.0123863811
C         -0.7148299412         0.0105005297        -1.3012052813
C          1.9513635906        -0.0424676358        -1.2603969501
H         -1.8023587498        -0.2232268405        -0.9150595437
H         -0.5592175572         1.1509672230        -1.7844721953
H         -0.4783715873        -0.7602064319        -1.9717628831
H          1.7390738987        -0.8883912932        -1.9029722183
H          1.7648597397         0.8472439864        -1.9267342466
H          2.9408840883        -0.0808277356        -1.0153473753
          10
ANG Step:          2 Time:       41.3407927177
N          0.0113645205        -0.0449365533         0.0013037086
N          1.2421088877         0.0703731075        -0.0145201252
C         -0.7170497499         0.0091470959        -1.3001281211
C          1.9547797006        -0.0448547268        -1.2593421271
H         -1.7732870198        -0.2081516714        -0.9390346443
H         -0.5534485319         1.1627492761        -1.7664216925
H         -0.4696343105        -0.7717116821        -1.9694478824
H          1.7486376872        -0.8819279821        -1.9145899495
H          1.7840801560         0.8389186373        -1.9191906411
H          2.9108311232        -0.0705913885        -1.0488501832
          10
ANG Step:          3 Time:       62.0111890765
N          0.0069195341        -0.0462477089         0.0043424461
N          1.2424128231         0.0730635732        -0.0167630739
C         -0.7197959522         0.0085293496        -1.2986094747
C          1.9576434474        -0.0469618412        -1.2586858240
H         -1.7410163514        -0.1906926214        -0.9661195703
H         -0.5498228426         1.1654049578        -1.7456358147
H         -0.4590626165        -0.7841847332        -1.9685097241
H          1.7569797345        -0.8768683629        -1.9246135439
H          1.8034076919         0.8294784798        -1.9096896126
H          2.8928279944        -0.0605711087        -1.0799177146
          10
ANG Step:          4 Time:       82.6815854354
N          0.0022656323        -0.0476739784         0.0071670304
N          1.2428676466         0.0757353526        -0.0191214436
C         -0.7227834574         0.0086310803        -1.2967806792
C          1.9596135496        -0.0488194905        -1.2584830096
H         -1.7085076888        -0.1715530578        -0.9951576360
H         -0.5482837443         1.1589027120        -1.7225496165
H         -0.4469874782        -0.7966067695        -1.9683403410
H          1.7639290585        -0.8733322219        -1.9329349758
H          1.8222350648         0.8197703534        -1.8988727446
H          2.8913827774        -0.0510109454        -1.1072957144
          10
ANG Step:          5 Time:      103.3519817942
N         -0.0025318797        -0.0492156154         0.0097974957
N          1.2434177226         0.0783747398        -0.0215990633
C         -0.7256359449         0.0094240070        -1.2947956309
C          1.9605935238        -0.0504835336        -1.2587175415
H         -1.6797636761        -0.1516326329        -1.0247138833
H         -0.5486992226         1.1435308217        -1.6976901217
H         -0.4338240394        -0.8079396892        -1.9682804250
H          1.7693553813        -0.8713882683        -1.9394538998
H          1.8399403843         0.8107849794        -1.8875078126
H          2.9080670932        -0.0420638437        -1.1304689418
          10
ANG Step:          6 Time:      124.0223781531
N         -0.0074111977        -0.0508729619         0.0122548521
N          1.2440060440         0.0809691874        -0.0241968209
C         -0.7279150058         0.0108641364        -1.2928067370
C          1.9607947689        -0.0520213694        -1.2593145540
H         -1.6595427807        -0.1319411283        -1.0532432204
H         -0.5508396917         1.1199634942        -1.6716940799
H         -0.4200343069        -0.8172331406        -1.9677095330
H          1.7731705765        -0.8710583722        -1.9440830324
H          1.8559395321         0.8035817947        -1.8764285008
H          2.9407402724        -0.0338767283        -1.1495760951
          10
ANG Step:          7 Time:      144.6927745119
N         -0.0123149784        -0.0526466349         0.0145607036
N          1.2445754185         0.0835073820        -0.0269128775
C         -0.7292082902         0.0128710337        -1.2909278147
C          1.9606428033        -0.0534958300        -1.2601774990
H         -1.6523930530        -0.1134041661        -1.0794319199
H         -0.5543461658         1.0893853608        -1.6453408575
H         -0.4060873908        -0.8236970416        -1.9661092960
H          1.7753360351        -0.8723158057        -1.9467477945
H          1.8697475179         0.7991647021        -1.8664406529
H          2.9846056338        -0.0266577034        -1.1650587427
          10
ANG Step:          8 Time:      165.3631708708
N         -0.0171901623        -0.0545374959         0.0167373002
N          1.2450704479         0.0859791834        -0.0297434929
C         -0.7292682873         0.0152959382        -1.2891948708
C          1.9606126006        -0.0549531400        -1.2612216070
H         -1.6610947116        -0.0966293501        -1.1025847443
H         -0.5586941202         1.0536746006        -1.6195960987
H         -0.3924217971        -0.8267417521        -1.9631013248
H          1.7758697900        -0.8750824713        -1.9473851161
H          1.8810278847         0.7983250829        -1.8582113282
H          3.0341058000        -0.0206619478        -1.1773626035
          10
ANG Step:          9 Time:      186.0335672296
N         -0.0219873538        -0.0565464239         0.0188076702
N          1.2454395176         0.0883754892        -0.0326840259
C         -0.7281258680         0.0178959775        -1.2875489180
C          1.9611083485        -0.0564148249        -1.2623898435
H         -1.6853862554        -0.0817968092        -1.1227719264
H         -0.5631667678         1.0156135197        -1.5956532424
H         -0.3794161718        -0.8259951709        -1.9584643514
H          1.7748465529        -0.8792310803        -1.9459469220
H          1.8896125950         0.8014922220        -1.8521714965
H          3.0843202639        -0.0161334813        -1.1868282805
          10
ANG Step:         10 Time:      206.7039635885
N         -0.0266606411        -0.0586739815         0.0207953041
N          1.2456362427         0.0906880997        -0.0357298352
C         -0.7260865223         0.0203319873        -1.2858544799
C          1.9624202227        -0.0578726716        -1.2636550455
H         -1.7220302001        -0.0687635565        -1.1405905169
H         -0.5668617890         0.9790200782        -1.5749417242
H         -0.3673726536        -0.8213080172        -1.9521366857
H          1.7723897610        -0.8845933607        -1.9424084724
H          1.8954907250         0.8086378276        -1.8484629516
H          3.1314877672        -0.0132601941        -1.1937013163
          10
ANG Step:         11 Time:      227.3743599473
N         -0.0311681690        -0.0609200807         0.0227232779
N          1.2456202790         0.0929096417        -0.0388769770
C         -0.7236117084         0.0222005366        -1.2839396963
C          1.9647310373        -0.0592882531        -1.2650148182
H         -1.7661571608        -0.0572697863        -1.1567556161
H         -0.5687635244         0.9485746015        -1.5590445714
H         -0.3565094649        -0.8127586145        -1.9442128829
H          1.7686592253        -0.8909716917        -1.9367781019
H          1.8987777383         0.8192667495        -1.8469459185
H          3.1729629875        -0.0121590943        -1.1981707152
          10
ANG Step:         12 Time:      248.0447563062
N         -0.0354731203        -0.0632837390         0.0246132327
N          1.2453577361         0.0950335802        -0.0421226335
C         -0.7211757620         0.0231120776        -1.2816385034
C          1.9681405115        -0.0605982556        -1.2664830575
H         -1.8127969119        -0.0470874794        -1.1718213714
H         -0.5679103868         0.9290483076        -1.5494571549
H         -0.3469543469        -0.8006648984        -1.9349434153
H          1.7638384047        -0.8981509288        -1.9291048571
H          1.8996800405         0.8324954956        -1.8472617294
H          3.2069718185        -0.0128815791        -1.2003977861
          10
ANG Step:         13 Time:      268.7151526650
N         -0.0395445479        -0.0657629582         0.0264846423
N          1.2448214030         0.0970543293        -0.0454652006
C         -0.7191683574         0.0228154791        -1.2788292565
C          1.9726894106        -0.0617244174        -1.2680805684
H         -1.8577869173        -0.0380717667        -1.1861056827
H         -0.5636481565         0.9238889764        -1.5471850775
H         -0.3387334567        -0.7856017126        -1.9247403861
H          1.7581237446        -0.9059082805        -1.9194822420
H          1.8984644689         0.8471895980        -1.8489261962
H          3.2323628643        -0.0154255996        -1.2005311527
          10
ANG Step:         14 Time:      289.3855490239
N         -0.0433577900        -0.0683546572         0.0283543234
N          1.2439908635         0.0989674531        -0.0489039997
C         -0.7178546419         0.0213162705        -1.2754633375
C          1.9783774779        -0.0625851564        -1.2698268430
H         -1.8980195869        -0.0301567101        -1.1997293484
H         -0.5558653303         0.9338161355        -1.5523531970
H         -0.3317576145        -0.7684082566        -1.9141837074
H          1.7517170355        -0.9140203842        -1.9080478311
H          1.8954356956         0.8621169946        -1.8514238800
H          3.2484225203        -0.0197471194        -1.1987129936
          10
ANG Step:         15 Time:      310.0559453827
N         -0.0468944809        -0.0710545298         0.0302357919
N          1.2428524528         0.1007699316        -0.0524386535
C         -0.7173806924         0.0188988543        -1.2715681267
C          1.9851744883        -0.0631060819        -1.2717343491
H         -1.9313292872        -0.0233333088        -1.2126812904
H         -0.5450466044         0.9565056680        -1.5641082488
H         -0.3258146002        -0.7501610920        -1.9040138767
H          1.7448208486        -0.9222675394        -1.8949793856
H          1.8909203446         0.8760816400        -1.8542818195
H          3.2547623145        -0.0257680805        -1.1950809267
          10
ANG Step:         16 Time:      330.7263417416
N         -0.0501421864        -0.0738568046         0.0321383339
N          1.2413989723         0.1024604451        -0.0560682326
C         -0.7178058813         0.0160280684        -1.2672212257
C          1.9930252791        -0.0632278231        -1.2738056754
H         -1.9562750645        -0.0176254429        -1.2248715658
H         -0.5320933631         0.9876516551        -1.5809059196
H         -0.3205805325        -0.7320918557        -1.8950929929
H          1.7376366382        -0.9304357937        -1.8804886024
H          1.8852556901         0.8880196748        -1.8571150608
H          3.2512710743        -0.0333806513        -1.1897674937
          10
ANG Step:         17 Time:      351.3967381004
N         -0.0530936478        -0.0767540744         0.0340661700
N          1.2396291376         0.1040396370        -0.0597903334
C         -0.7191391470         0.0132054840        -1.2625166542
C          2.0018494930        -0.0629109274        -1.2760331042
H         -1.9719462076        -0.0130692667        -1.2361652122
H         -0.5180455670         1.0225117848        -1.6009617522
H         -0.3156631794        -0.7154456608        -1.8883186573
H          1.7303649093        -0.9383178250        -1.8648136868
H          1.8787814803         0.8970574750        -1.8596472353
H          3.2381257845        -0.0424486890        -1.1828971289
          10
ANG Step:         18 Time:      372.0671344593
N         -0.0557457525        -0.0797373815         0.0360181694
N          1.2375468194         0.1055103291        -0.0636003009
C         -0.7213618071         0.0108621957        -1.2575453564
C          2.0115361845        -0.0621382690        -1.2783999158
H         -1.9778308382        -0.0096979872        -1.2464009584
H         -0.5038671359         1.0569866580        -1.6226009968
H         -0.3106814537        -0.7012993607        -1.8844901352
H          1.7232065967        -0.9457139362        -1.8482119504
H          1.8718341899         0.9025402806        -1.8617142190
H          3.2158615203        -0.0528082214        -1.1745785904
          10
ANG Step:         19 Time:      392.7375308181
N         -0.0580985111        -0.0827966078         0.0379882377
N          1.2351601920         0.1068776795        -0.0674907917
C         -0.7244331619         0.0093101437        -1.2523947170
C          2.0219329315        -0.0609155124        -1.2808829418
H         -1.9737502008        -0.0075318838        -1.2554007629
H         -0.4903484317         1.0880133575        -1.6444206941
H         -0.3053676015        -0.6903820307        -1.8841514857
H          1.7163647652        -0.9524344152        -1.8309533375
H          1.8647433609         0.9040424213        -1.8632589262
H          3.1855063600        -0.0642700474        -1.1648887044
          10
ANG Step:         20 Time:      413.4079271770
N         -0.0601543268        -0.0859210773         0.0399661803
N          1.2324809144         0.1081492877        -0.0714517818
C         -0.7282845701         0.0087358016        -1.2471579694
C          2.0328292510        -0.0592698822        -1.2834563550
H         -1.9598532394        -0.0065726554        -1.2629755338
H         -0.4780946005         1.1135204656        -1.6653139597
H         -0.2996589417        -0.6829546061        -1.8874612224
H          1.7100457285        -0.9583042020        -1.8133153703
H          1.8578296509         0.9013682669        -1.8643230985
H          3.1487850182        -0.0766296159        -1.1538407006
          10
ANG Step:         21 Time:      434.0783235358
N         -0.0619176856        -0.0891002329         0.0419387593
N          1.2295234065         0.1093352515        -0.0754710195
C         -0.7328091724         0.0092166632        -1.2419421970
C          2.0439361258        -0.0572470966        -1.2860970283
H         -1.9366699678        -0.0068016136        -1.2689314212
H         -0.4675530601         1.1322206906        -1.6844305838
H         -0.2937409446        -0.6787941799        -1.8941406946
H          1.7044586479        -0.9631704214        -1.7955796863
H          1.8514038021         0.8945501694        -1.8650397337
H          3.1083713955        -0.0896917952        -1.1413293045
          10
ANG Step:         22 Time:      454.7487198947
N         -0.0633952430        -0.0923242700         0.0438907406
N          1.2263042010         0.1104481799        -0.0795348364
C         -0.7378510961         0.0107479444        -1.2368685241
C          2.0548693868        -0.0549061619        -1.2887914370
H         -1.9052278905        -0.0081823339        -1.2730803081
H         -0.4590496796         1.1433951432        -1.7011222533
H         -0.2880224958        -0.6772878081        -1.9035234238
H          1.6998124135        -0.9669130435        -1.7780301555
H          1.8457648944         0.8838469805        -1.8656282451
H          3.0681008294        -0.1033178266        -1.1270512143
          10
ANG Step:         23 Time:      475.4191162535
N         -0.0645961936        -0.0955846532         0.0458058365
N          1.2228413194         0.1115031629        -0.0836291894
C         -0.7431939705         0.0132715011        -1.2320643119
C          2.0651561675        -0.0523126337        -1.2915418025
H         -1.8672352825        -0.0106698719        -1.2752573747
H         -0.4528200450         1.1467253772        -1.7148941889
H         -0.2830562845        -0.6775951593        -1.9146826758
H          1.6963082800        -0.9694586440        -1.7609525462
H          1.8411949282         0.8697448763        -1.8663937789
H          3.0329180218        -0.1174895274        -1.1104277406
          10
ANG Step:         24 Time:      496.0895126123
N         -0.0655327381        -0.0988744692         0.0476675593
N          1.2191536709         0.1125176965        -0.0877407686
C         -0.7485476009         0.0167014787        -1.2276510452
C          2.0742946434        -0.0495338289        -1.2943641157
H         -1.8253169937        -0.0142303461        -1.2753466329
H         -0.4490314789         1.1421825346        -1.7253703541
H         -0.2794385255        -0.6788203443        -1.9265867748
H          1.6941269404        -0.9707970196        -1.7446357830
H          1.8379460077         0.8529599029        -1.8677314180
H          3.0082051902        -0.1323494239        -1.0906175268
          10
ANG Step:         25 Time:      516.7599089712
N         -0.0662204371        -0.1021886094         0.0494600310
N          1.2152607146         0.1135115607        -0.0918580284
C         -0.7535364061         0.0209436900        -1.2237322427
C          2.0818830427        -0.0466428492        -1.2972668632
H         -1.7832307676        -0.0188750300        -1.2733100032
H         -0.4477947427         1.1299682078        -1.7322739648
H         -0.2777204846        -0.6801475447        -1.9382353646
H          1.6934112495        -0.9709988129        -1.7293740081
H          1.8362187147         0.8344364485        -1.8701330733
H          2.9982963511        -0.1481313327        -1.0667559141
          10
ANG Step:         26 Time:      537.4303053300
N         -0.0666781945        -0.1055237975         0.0511687764
N          1.2111829037         0.1145066259        -0.0959721153
C         -0.7577046284         0.0259075960        -1.2203847461
C          2.0877687748        -0.0437343403        -1.3002096689
H         -1.7458731230        -0.0247068384        -1.2692045281
H         -0.4491642326         1.1105015728        -1.7354247667
H         -0.2783477260        -0.6809237284        -1.9487529581
H          1.6942508248        -0.9702289445        -1.7154666480
H          1.8361381869         0.8153258249        -1.8741875321
H          3.0047419442        -0.1649353705        -1.0384410880
          10
ANG Step:         27 Time:      558.1007016889
N         -0.0669276311        -0.1088784840         0.0527814789
N          1.2069433260         0.1155265255        -0.1000777805
C         -0.7605665384         0.0315094206        -1.2176555546
C          2.0921054649        -0.0409391077        -1.3030686172
H         -1.7187435830        -0.0319552264        -1.2631603117
H         -0.4531240611         1.0844524664        -1.7347568058
H         -0.2816265055        -0.6806947495        -1.9574391515
H          1.6966777409        -0.9687478827        -1.7032121785
H          1.8377441361         0.7969194856        -1.8805548584
H          3.0256270023        -0.1824819617        -1.0061683934
          10
ANG Step:         28 Time:      578.7710980477
N         -0.0669918261        -0.1122526014         0.0542885859
N          1.2025701758         0.1165961295        -0.1041741929
C         -0.7617244940         0.0376623693        -1.2155639622
C          2.0952636050        -0.0384168459        -1.3056429728
H         -1.7066050996        -0.0409404529        -1.2553024669
H         -0.4595566313         1.0528252339        -1.7303633805
H         -0.2877092165        -0.6792107376        -1.9637873520
H          1.7006768730        -0.9668962182        -1.6928940685
H          1.8410110543         0.7805163095        -1.8898955894
H          3.0565727995        -0.2000749438        -0.9713212130
          10
ANG Step:         29 Time:      599.4414944066
N         -0.0668938490        -0.1156471621         0.0556835152
N          1.1980988697         0.1177408251        -0.1082653226
C         -0.7610247837         0.0442501833        -1.2141031490
C          2.0976738530        -0.0363251834        -1.3077020092
H         -1.7116979979        -0.0519119224        -1.2456606945
H         -0.4681928803         1.0170977040        -1.7225766156
H         -0.2965927954        -0.6764152527        -1.9674853441
H          1.7062042135        -0.9650656476        -1.6847626958
H          1.8458997575         0.7672304848        -1.9027503575
H          3.0925011780        -0.2167992119        -0.9357407348
          10
ANG Step:         30 Time:      620.1118907654
N         -0.0666558657        -0.1190637391         0.0569621385
N          1.1935727139         0.1189856950        -0.1123596965
C         -0.7586488544         0.0510904312        -1.2132314317
C          2.0997095261        -0.0347842519        -1.3090390764
H         -1.7327074821        -0.0648184770        -1.2341656710
H         -0.4785514575         0.9794056986        -1.7120825167
H         -0.3081292276        -0.6724262598        -1.9684063782
H          1.7132035961        -0.9636626253        -1.6790186105
H          1.8524211426         0.7577856293        -1.9193926291
H          3.1289349534        -0.2317650292        -0.9012440343
          10
ANG Step:         31 Time:      640.7822871243
N         -0.0662992813        -0.1225039196         0.0581214663
N          1.1890418706         0.1203547064        -0.1164696781
C         -0.7550600501         0.0579071653        -1.2128520292
C          2.1016406912        -0.0338548397        -1.3095075206
H         -1.7654084394        -0.0791922511        -1.2207593203
H         -0.4898876874         0.9427249476        -1.7000501440
H         -0.3220475689        -0.6675120230        -1.9665953905
H          1.7216177934        -0.9630684397        -1.6757994999
H          1.8606815968         0.7523678027        -1.9397027176
H          3.1624859888        -0.2442539991        -0.8693424113
          10
ANG Step:         32 Time:      661.4526834831
N         -0.0658454923        -0.1259688456         0.0591580197
N          1.1845611158         0.1218699532        -0.1206105209
C         -0.7508524112         0.0643320389        -1.2127964681
C          2.1036374180        -0.0335360239        -1.3090333377
H         -1.8044061253        -0.0942433823        -1.2055127189
H         -0.5011932210         0.9109241524        -1.6882042841
H         -0.3379816976        -0.6620644727        -1.9622544536
H          1.7313950566        -0.9635978578        -1.6751703319
H          1.8708854856         0.7505991347        -1.9631158698
H          3.1908168102        -0.2537563745        -0.8411645788
          10
ANG Step:         33 Time:      682.1230798420
N         -0.0653163495        -0.1294589731         0.0600666880
N          1.1801871134         0.1235509591        -0.1247993379
C         -0.7466073465         0.0699454039        -1.2128325734
C          2.1057932735        -0.0337787884        -1.3076100080
H         -1.8446730446        -0.1090664239        -1.1886549821
H         -0.5113101838         0.8884577214        -1.6786988773
H         -0.3554960637        -0.6565730635        -1.9557307654
H          1.7424929898        -0.9654600828        -1.6771156972
H          1.8832923371         0.7516427075        -1.9886701014
H          3.2124143127        -0.2599483212        -0.8174909895
          10
ANG Step:         34 Time:      702.7934762008
N         -0.0647337482        -0.1329741488         0.0608406184
N          1.1759757174         0.1254140600        -0.1290540528
C         -0.7428061449         0.0743653017        -1.2127101161
C          2.1081513897        -0.0345075344        -1.3052834930
H         -1.8822743505        -0.1228164379        -1.1705241520
H         -0.5192104898         0.8794646022        -1.6736335694
H         -0.3741061750        -0.6516004372        -1.9475068530
H          1.7548800572        -0.9687281503        -1.6815342749
H          1.8981498492         0.7543907342        -2.0151346325
H          3.2263601308        -0.2626515875        -0.7988214501
          10
ANG Step:         35 Time:      723.4638725597
N         -0.0641184067        -0.1365139291         0.0614720080
N          1.1719795599         0.1274719022        -0.1333923785
C         -0.7397898444         0.0773691583        -1.2122350086
C          2.1107252913        -0.0356410547        -1.3021347302
H         -1.9144493616        -0.1347998412        -1.1514981591
H         -0.5243718688         0.8863943885        -1.6742669245
H         -0.3932962733        -0.6477565771        -1.9381877084
H          1.7685337084        -0.9733236012        -1.6882364887
H          1.9156313497         0.7576641193        -2.0411698416
H          3.2321610019        -0.2617973819        -0.7854364102
          10
ANG Step:         36 Time:      744.1342689185
N         -0.0634883435        -0.1400778090         0.0619530297
N          1.1682460317         0.1297330878        -0.1378308736
C         -0.7377559014         0.0789833068        -1.2113295418
C          2.1135121917        -0.0371073779        -1.2982647645
H         -1.9394065523        -0.1444941495        -1.1319437352
H         -0.5270070391         0.9089325859        -1.6803927574
H         -0.4125396643        -0.6456618558        -1.9284748547
H          1.7834342517        -0.9790210204        -1.6969469138
H          1.9357961115         0.7603693224        -2.0654710596
H          3.2296479956        -0.2574022256        -0.7774372123
          10
ANG Step:         37 Time:      764.8046652774
N         -0.0628575796        -0.1436650213         0.0622761049
N          1.1648157154         0.1322019787        -0.1423841238
C         -0.7367884085         0.0794686508        -1.2100329430
C          2.1164989649        -0.0388507619        -1.2937848909
H         -1.9560672375        -0.1515281974        -1.1121917689
H         -0.5279382616         0.9440943558        -1.6904147167
H         -0.4313260910        -0.6458884523        -1.9191163675
H          1.7995550457        -0.9854725407        -1.7073125418
H          1.9585754200         0.7615937666        -2.0868709987
H          3.2189382926        -0.2495570696        -0.7747613426
          10
ANG Step:         38 Time:      785.4750616362
N         -0.0622352784        -0.1472739140         0.0624334447
N          1.1617213030         0.1348786754        -0.1470640798
C         -0.7369044961         0.0792119480        -1.2084487470
C          2.1196616332        -0.0408319630        -1.2888120519
H         -1.9638574617        -0.1556493453        -1.0925321256
H         -0.5282222593         0.9874001201        -1.7020510030
H         -0.4491958702        -0.6488800952        -1.9108292285
H          1.8168511523        -0.9922479085        -1.7189169726
H          1.9837774708         0.7606480293        -2.1043989568
H          3.2004542731        -0.2384287492        -0.7771713948
          10
ANG Step:         39 Time:      806.1454579951
N         -0.0616252410        -0.1509012636         0.0624164253
N          1.1589869865         0.1377591913        -0.1518795821
C         -0.7380912710         0.0786031298        -1.2066881583
C          2.1229588974        -0.0430241424        -1.2834687292
H         -1.9625735801        -0.1566944323        -1.0732174429
H         -0.5288123256         1.0342119300        -1.7130917751
H         -0.4657749633        -0.6548650288        -1.9042042860
H          1.8352494795        -0.9988828268        -1.7312993589
H          2.0111020434         0.7570738231        -2.1173081839
H          3.1749997680        -0.2242720550        -0.7842162075
          10
ANG Step:         40 Time:      826.8158543539
N         -0.0610256204        -0.1545418688         0.0622153144
N          1.1566282742         0.1408358163        -0.1568361015
C         -0.7403220423         0.0779587094        -1.2048418777
C          2.1263198808        -0.0454068738        -1.2778863816
H         -1.9523182168        -0.1545722363        -1.0544676185
H         -0.5304051075         1.0805522394        -1.7218142132
H         -0.4808019768        -0.6637862218        -1.8996177076
H          1.8546432376        -1.0049274983        -1.7439757817
H          2.0401580465         0.7506358443        -2.1250856764
H          3.1438955079        -0.2074492102        -0.7951630056
          10
ANG Step:         41 Time:      847.4862507128
N         -0.0604288310        -0.1581885401         0.0618194466
N          1.1546521973         0.1440976299        -0.1619357241
C         -0.7435562550         0.0774973081        -1.2029779493
C          2.1296268822        -0.0479604192        -1.2722112543
H         -1.9334978720        -0.1492595601        -1.0364695756
H         -0.5334355977         1.1233607523        -1.7270625704