10
ANG Step:        474 Time:     9797.7678740939
N     0.06451728    -0.21731256    -0.90704632
N     1.18957165     0.38575241    -0.53835800
C    -1.36060277     0.00630574    -0.64839179
C     2.62226458    -0.14170600    -0.68896202
H    -1.80584832    -0.64964918     0.22824700
H    -1.77922530     1.01046286    -0.45328453
H    -1.76946115    -0.35845067    -1.51999073
H     2.65974182    -1.12905082    -0.78813416
H     2.73676815     0.09566102    -1.62307602
H     3.31332597     0.30217561    -0.05334188
