10
ANG Step:        582 Time:    12030.1706808494
N     0.06180492    -0.44657215    -0.38174921
N     1.19852076     0.05497476    -0.23680242
C    -1.13134990     0.20452432    -1.00279306
C     2.36563212     0.13354973    -1.01076946
H    -1.96662241     0.12844526    -0.32868464
H    -0.89772097     1.19615726    -1.63596348
H    -1.37686990    -0.54526934    -1.81441813
H     2.88257948    -0.73850780    -0.87039009
H     2.00601540     0.44309171    -1.96412788
H     2.94762872     0.93142710    -1.03303568
