10
ANG Step:        394 Time:     8144.1361653860
N     0.06106888    -0.19669647    -1.31616769
N     1.15134015     0.41031327    -0.91089107
C    -1.02014193    -0.05412823    -0.33836268
C     2.28173019    -0.11995330    -0.38780055
H    -0.80293889    -0.60658827     0.55856679
H    -1.06997171     0.95591011     0.17298625
H    -1.98425253    -0.31612767    -0.58045070
H     2.13250563    -1.14571018    -0.32873588
H     3.33950227    -0.05477620    -1.00395519
H     2.32018014     0.27099718     0.55521765
