10
ANG Step:        248 Time:     5126.2582969943
N     0.07050268    -0.19245669    -1.32200186
N     1.14117682     0.37542503    -1.10657607
C    -0.93411447     0.00332232    -0.23926534
C     2.18275271    -0.17209457    -0.26091123
H    -0.40472825    -0.31601320     0.65954873
H    -1.27771282     1.14058420    -0.22218872
H    -1.65636108    -0.69453490    -0.51607049
H     2.14194835    -1.20311526    -0.22931362
H     3.05020175     0.34346652    -0.94818972
H     2.24551909     0.19537424     0.73898189
