10
ANG Step:        384 Time:     7937.4322017976
N     0.04045108    -0.10062074    -1.30056154
N     1.16188279     0.35881724    -1.01956940
C    -0.97996525    -0.08907417    -0.28180404
C     2.28642737    -0.13729655    -0.35659324
H    -0.68675377    -0.75680003     0.59167521
H    -1.09613662     0.94141662    -0.05069498
H    -2.01734669    -0.38759966    -0.67075348
H     1.93789963    -1.21570701    -0.18976553
H     3.20989416     0.07838247    -0.70968110
H     2.19311707     0.44716613     0.65100833
