10
ANG Step:        218 Time:     4506.1464062288
N     0.01359555    -0.28224949    -1.29475060
N     1.09833388     0.31481704    -0.82647993
C    -1.06408816     0.06625971    -0.38388573
C     2.45800975    -0.09664826    -0.41605802
H    -0.78319646    -0.13997149     0.66940612
H    -1.22554473     1.02965131    -0.58439910
H    -2.11113306    -0.29142704    -0.53088732
H     2.16534689    -1.22728713    -0.50359413
H     3.19141599     0.31603457    -0.93878839
H     2.51797670     0.22065532     0.66990382
