          10
ANG Step:          0 Time:        0.0000000000
N          0.0029626462        -0.0857094354         0.0246778616
N          1.2877506363         0.0752346742         0.0117159887
C         -0.7978554690         0.0396910477        -1.3097786483
C          2.0182173034        -0.0308122849        -1.2823179390
H         -1.9074323455        -0.0482294066        -1.2445351837
H         -0.5721329410         1.0061559169        -1.8101834337
H         -0.5604270384        -0.6455145636        -2.0789450501
H          1.7721722856        -1.1190110848        -1.6029338259
H          1.5195288725         0.7431333544        -2.0585310709
H          3.0848889681         0.1007708507        -1.0632434431
          10
ANG Step:          1 Time:       20.6703963588
N         -0.0005300017        -0.0837875746         0.0211397074
N          1.2911053511         0.0749285063         0.0077268178
C         -0.7979427701         0.0347656363        -1.3071486956
C          2.0168066725        -0.0278250726        -1.2751570835
H         -1.8871236729        -0.0444485189        -1.2311148764
H         -0.5608143591         1.0150568564        -1.8106265711
H         -0.5761317396        -0.6250492977        -2.0750411693
H          1.7671932259        -1.1418999729        -1.6406679833
H          1.5345800945         0.7257277475        -2.0475353867
H          3.0786497054         0.1085509347        -1.0653758349
          10
ANG Step:          2 Time:       41.3407927177
N         -0.0038896574        -0.0819149883         0.0171280119
N          1.2940742882         0.0747072991         0.0035988011
C         -0.7981064449         0.0304614601        -1.3042949549
C          2.0150043174        -0.0252047563        -1.2681937699
H         -1.8652948589        -0.0401395991        -1.2150608706
H         -0.5506250442         1.0221700845        -1.8081126686
H         -0.5888074464        -0.6097726687        -2.0725388317
H          1.7650260982        -1.1580476788        -1.6774152672
H          1.5538013348         0.7043465862        -2.0322707017
H          3.0710944748         0.1164895007        -1.0687570849
          10
ANG Step:          3 Time:       62.0111890765
N         -0.0070440214        -0.0800992529         0.0126614852
N          1.2965842299         0.0745500455        -0.0006442523
C         -0.7982253165         0.0269613660        -1.3011559733
C          2.0128372465        -0.0230933667        -1.2614893777
H         -1.8437976239        -0.0353576138        -1.1963341044
H         -0.5418818197         1.0268840808        -1.8024141475
H         -0.5979729112        -0.6009630784        -2.0726848325
H          1.7658551588        -1.1666211603        -1.7121802298
H          1.5763451100         0.6801568793        -2.0135817001
H          3.0628221402         0.1244425397        -1.0731494500
          10
ANG Step:          4 Time:       82.6815854354
N         -0.0099253678        -0.0783481778         0.0077641986
N          1.2985662881         0.0744375809        -0.0049738250
C         -0.7981524252         0.0243766168        -1.2977107041
C          2.0103658607        -0.0216290523        -1.2550633986
H         -1.8246240120        -0.0301776136        -1.1748980693
H         -0.5348231606         1.0288210174        -1.7934744062
H         -0.6034288831        -0.5992754550        -2.0761422792
H          1.7697350572        -1.1672563606        -1.7441174444
H          1.6010709277         0.6547330511        -1.9927702537
H          3.0544969567         0.1322742861        -1.0782756889
          10
ANG Step:          5 Time:      103.3519817942
N         -0.0124707535        -0.0766698477         0.0024657576
N          1.2999569220         0.0743531147        -0.0093570521
C         -0.7977352762         0.0227373736        -1.2939945000
C          2.0076859229        -0.0209611806        -1.2488875572
H         -1.8096438495        -0.0246867048        -1.1507424963
H         -0.5296073998         1.0278237169        -1.7813952127
H         -0.6052911298        -0.6046250938        -2.0827934581
H          1.7766232752        -1.1599297563        -1.7725130037
H          1.6265465265         0.6301047398        -1.9716645027
H          3.0467899689         0.1398561575        -1.0838315025
          10
ANG Step:          6 Time:      124.0223781531
N         -0.0146221601        -0.0750727878        -0.0031988662
N          1.3006989558         0.0742825847        -0.0137572579
C         -0.7968480731         0.0219972224        -1.2900933073
C          2.0049253629        -0.0212528100        -1.2428886675
H         -1.8002633929        -0.0189753719        -1.1239310040
H         -0.5263110518         1.0239495120        -1.7664282063
H         -0.6039581037        -0.6162440417        -2.0917698421
H          1.7864008790        -1.1448769560        -1.7967685508
H          1.6511271127         0.6087039737        -1.9525770529
H          3.0403133511         0.1470649192        -1.0894994663
          10
ANG Step:          7 Time:      144.6927745119
N         -0.0163267256        -0.0735662242        -0.0091898907
N          1.3007425705         0.0742147613        -0.0181344809
C         -0.7954260054         0.0220490978        -1.2861181321
C          2.0022313396        -0.0226630504        -1.2369698520
H         -1.7971080648        -0.0131320823        -1.0946678428
H         -0.5249265010         1.0174745318        -1.7489719767
H         -0.6000269689        -0.6328783823        -2.1016872374
H          1.7988828644        -1.1225530842        -1.8163938797
H          1.6731571325         0.5931175845        -1.9380358196
H          3.0355564627         0.1537808101        -1.0949629847
          10
ANG Step:          8 Time:      165.3631708708
N         -0.0175372266        -0.0721603762        -0.0154636334
N          1.3000462924         0.0741410762        -0.0224459048
C         -0.7934868230         0.0227451938        -1.2821723782
C          1.9997471084        -0.0253058793        -1.2310552415
H         -1.7998688126        -0.0072436584        -1.0633594880
H         -0.5253598141         1.0089068286        -1.7295724127
H         -0.5941913425        -0.6530350976        -2.1109630080
H          1.8138196809        -1.0936306162        -1.8310141148
H          1.6912878038         0.5855989664        -1.9302232478
H          3.0328340110         0.1598867142        -1.0999187568
          10
ANG Step:          9 Time:      186.0335672296
N         -0.0182128762        -0.0708666922        -0.0219736508
N          1.2985780666         0.0740552293        -0.0266464238
C         -0.7911298958         0.0239141674        -1.2783260951
C          1.9975874477        -0.0291963843        -1.2251450457
H         -1.8073944264        -0.0013997835        -1.0306369151
H         -0.5274309823         0.9990005179        -1.7089206607
H         -0.5871521705        -0.6751937987        -2.1180895994
H          1.8308915534        -1.0590318234        -1.8403991841
H          1.7047953408         0.5874648615        -1.9302701624
H          3.0322544901         0.1652697433        -1.1040869149
          10
ANG Step:         10 Time:      206.7039635885
N         -0.0183204120        -0.0696979433        -0.0286719136
N          1.2963166110         0.0739527051        -0.0306899169
C         -0.7885148920         0.0253732503        -1.2746046233
C          1.9958276390        -0.0342117420        -1.2193464521
H         -1.8179860710         0.0043029392        -0.9973195425
H         -0.5308803999         0.9887556547        -1.6878403498
H         -0.5795574522        -0.6979453859        -2.1218046707
H          1.8496979353        -1.0199927308        -1.8445246973
H          1.7137134639         0.5986963914        -1.9377991613
H          3.0337126064         0.1698261880        -1.1072187140
          10
ANG Step:         11 Time:      227.3743599473
N         -0.0178353935        -0.0686681201        -0.0355097868
N          1.2932532213         0.0738303164        -0.0345317552
C         -0.7858312310         0.0269371907        -1.2709912146
C          1.9945130384        -0.0400900806        -1.2138509188
H         -1.8297585654         0.0097607333        -0.9643328754
H         -0.5353866572         0.9793813510        -1.6672545102
H         -0.5719710644        -0.7200619408        -2.1211625852
H          1.8697465969        -0.9781529286        -1.8436714447
H          1.7186905035         0.6180130837        -1.9510547989
H          3.0369062349         0.1734692275        -1.1091015117
          10
ANG Step:         12 Time:      248.0447563062
N         -0.0167436069        -0.0677921072        -0.0424386347
N          1.2893939704         0.0736857921        -0.0381324397
C         -0.7832695541         0.0284280117        -1.2674388464
C          1.9936794426        -0.0464625174        -1.2088662098
H         -1.8409403673         0.0148659501        -0.9326121998
H         -0.5406003261         0.9721977053        -1.6481245198
H         -0.5648629903        -0.7405207414        -2.1155409681
H          1.8904505817        -0.9356568731        -1.8385604609
H          1.7206824784         0.6433514115        -1.9675274874
H          3.0413771672         0.1761369612        -1.1095602243
          10
ANG Step:         13 Time:      268.7151526650
N         -0.0150425074        -0.0670851564        -0.0494100427
N          1.2847619964         0.0735173674        -0.0414614693
C         -0.7810008638         0.0296888985        -1.2638859072
C          1.9933680816        -0.0528942545        -1.2045418575
H         -1.8500556987         0.0195114980        -0.9030215874
H         -0.5461942954         0.9684633502        -1.6313608931
H         -0.5586117999        -0.7585059348        -2.1046167833
H          1.9111453357        -0.8952271658        -1.8304935114
H          1.7206720481         0.6724247234        -1.9846532452
H          3.0465713089         0.1777977834        -1.1084551421
          10
ANG Step:         14 Time:      289.3855490239
N         -0.0127426431        -0.0665622191        -0.0563758442
N          1.2793994507         0.0733234343        -0.0445001661
C         -0.7791639163         0.0306023117        -1.2602714626
C          1.9936272468        -0.0589205577        -1.2009231607
H         -1.8559987132         0.0235944318        -0.8763010487
H         -0.5519222643         0.9691465247        -1.6177191952
H         -0.5535120348        -0.7734046982        -2.0883358722
H          1.9311387210        -0.8601222270        -1.8214177825
H          1.7195120463         0.7031096273        -2.0002671287
H          3.0519083972         0.1784514858        -1.1056775364
          10
ANG Step:         15 Time:      310.0559453827
N         -0.0098690499        -0.0662372331        -0.0632882071
N          1.2733687484         0.0731024625        -0.0472424813
C         -0.7778595434         0.0311081361        -1.2565467437
C          1.9945028731        -0.0640852039        -1.1979505059
H         -1.8580386349         0.0270183309        -0.8530398945
H         -0.5576671061         0.9747002147        -1.6077083181
H         -0.5497814899        -0.7848078222        -2.0668891710
H          1.9497957377        -0.8338427558        -1.8137741410
H          1.7178813849         0.7336109608        -2.0127604526
H          3.0568487056         0.1781266837        -1.1011452189
          10
ANG Step:         16 Time:      330.7263417416
N         -0.0064626384        -0.0661224814        -0.0700999308
N          1.2667529750         0.0728534150        -0.0496935648
C         -0.7771505401         0.0312150820        -1.2526805255
C          1.9960254750        -0.0679963498        -1.1955061966
H         -1.8557944799         0.0296952587        -0.8336672801
H         -0.5634585527         0.9849266446        -1.6015416852
H         -0.5475653918        -0.7925194174        -2.0407008838
H          1.9666327005        -0.8194865739        -1.8099976002
H          1.7163011453         0.7624790613        -2.0210475495
H          3.0609471763         0.1768764312        -1.0947995092
          10
ANG Step:         17 Time:      351.3967381004
N         -0.0025815504        -0.0662281276        -0.0767649554
N          1.2596556038         0.0725766273        -0.0518667771
C         -0.7770656627         0.0310003134        -1.2486578712
C          1.9982012957        -0.0703966989        -1.1934925414
H         -1.8492059921         0.0315483227        -0.8184501623
H         -0.5694509116         0.9989923647        -1.5991474854
H         -0.5469358997        -0.7965770741        -2.0104285901
H          1.9813691603        -0.8188736039        -1.8117369570
H          1.7151692816         0.7885635519        -2.0244585955
H          3.0638907206         0.1747731545        -1.0866040909
          10
ANG Step:         18 Time:      372.0671344593
N          0.0016976598        -0.0665620173        -0.0832389953
N          1.2521998771         0.0722748026        -0.0537803765
C         -0.7776056311         0.0305977562        -1.2444740743
C          2.0010117080        -0.0712142935        -1.1918997548
H         -1.8385153001         0.0325153533        -0.8074910986
H         -0.5758706158         1.0155877265        -1.6002289928
H         -0.5478867910        -0.7972806875        -1.9769707942
H          1.9939024853        -0.8318875270        -1.8191991929
H          1.7147934140         0.8109544070        -2.0226296625
H          3.0655183538         0.1719023040        -1.0765457627
          10
ANG Step:         19 Time:      392.7375308181
N          0.0062792944        -0.0671297825        -0.0894802139
N          1.2445280935         0.0719536864        -0.0554549816
C         -0.7787486462         0.0301804101        -1.2401272586
C          2.0044181121        -0.0705559988        -1.1908199404
H         -1.8242646973         0.0325535410        -0.8007214917
H         -0.5829558075         1.0331624255        -1.6043480880
H         -0.5503251550        -0.7952235358        -1.9414728346
H          2.0042350836        -0.8565012981        -1.8310953644
H          1.7154152074         0.8289319248        -2.0154195268
H          3.0658260851         0.1683538976        -1.0646365562
          10
ANG Step:         20 Time:      413.4079271770
N          0.0110485658        -0.0679352287        -0.0954498600
N          1.2368005942         0.0716222537        -0.0569121240
C         -0.7804535007         0.0299425562        -1.2356132707
C          2.0083665687        -0.0686457020        -1.1904042735
H         -1.8073088247         0.0316441583        -0.7978894701
H         -0.5909080192         1.0501542279        -1.6110044498
H         -0.5540648281        -0.7913114274        -1.9053165570
H          2.0124187007        -0.8894709636        -1.8452135832
H          1.7172255952         0.8419343297        -2.0028599108
H          3.0649599038         0.1642132154        -1.0509156740
          10
ANG Step:         21 Time:      434.0783235358
N          0.0158728073        -0.0689809083        -0.1011127988
N          1.2291937976         0.0712925630        -0.0581734587
C         -0.7826596632         0.0300843420        -1.2309255548
C          2.0127902493        -0.0657485427        -1.1908018098
H         -1.7888322272         0.0297959727        -0.7985459143
H         -0.5998646370         1.0651576267        -1.6196944930
H         -0.5588296762        -0.7867452455        -1.8700739797
H          2.0185399853        -0.9272168391        -1.8591728837
H          1.7203712876         0.8495481455        -1.9851367339
H          3.0631993227         0.1595534398        -1.0354494226
          10
ANG Step:         22 Time:      454.7487198947
N          0.0206041969        -0.0702687439        -0.1064379076
N          1.2218965891         0.0709795112        -0.0592600582
C         -0.7852852577         0.0307970789        -1.2260611534
C          2.0176120875        -0.0621184041        -1.1921156439
H         -1.7703535811         0.0270455971        -0.8020378119
H         -0.6098902200         1.0770201065        -1.6299469909
H         -0.5642770169        -0.7829340904        -1.8374046068
H          2.0227252239        -0.9664579808        -1.8709464631
H          1.7249526875         0.8515249228        -1.9625978060
H          3.0609303923         0.1544318418        -1.0183288546
          10
ANG Step:         23 Time:      475.4191162535
N          0.0250842824        -0.0718005481        -0.1113983359
N          1.2151046675         0.0707005741        -0.0601915440
C         -0.7882255400         0.0322458630        -1.2210317753
C          2.0227501352        -0.0579780302        -1.1943846613
H         -1.7536858369         0.0234531054        -0.8075244942
H         -0.6209798601         1.0848806062        -1.6413401450
H         -0.5700487098        -0.7813128146        -1.8088879970
H          2.0251407049        -1.0044927678        -1.8790618121
H          1.7310126311         0.8478272308        -1.9357833106
H          3.0586049438         0.1488888468        -0.9996672271
          10
ANG Step:         24 Time:      496.0895126123
N          0.0291504821        -0.0735783004        -0.1159716262
N          1.2090128338         0.0704754594        -0.0609851593
C         -0.7913562296         0.0345482890        -1.2158758537
C          2.0281261884        -0.0535231345        -1.1975815858
H         -1.7408123042         0.0190924950        -0.8140362257
H         -0.6330677236         1.0881732718        -1.6535073993
H         -0.5758461478        -0.7830730423        -1.7858129593
H          2.0259835884        -1.0392302191        -1.8825859905
H          1.7385145785         0.8387073266        -1.9054769939
H          3.0566849323         0.1429485201        -0.9796008254
          10
ANG Step:         25 Time:      516.7599089712
N          0.0326444699        -0.0756040754        -0.1201396930
N          1.2038055972         0.0703255474        -0.0616550401
C         -0.7945467216         0.0377531099        -1.2106649078
C          2.0336767486        -0.0489392662        -1.2016162954
H         -1.7336463696         0.0140398266        -0.8205886208
H         -0.6460360581         1.0866165144        -1.6661389255
H         -0.5815074233        -0.7888771821        -1.7689824877
H          2.0254682976        -1.0691066206        -1.8810238780
H          1.7473087832         0.8248208770        -1.8727751421
H          3.0555765865         0.1366199875        -0.9582960740
          10
ANG Step:         26 Time:      537.4303053300
N          0.0354219761        -0.0778795707        -0.1238886572
N          1.1996468153         0.0702730329        -0.0622119047
C         -0.7976852081         0.0418267757        -1.2054983482
C          2.0393645527        -0.0444235053        -1.2063385039
H         -1.7336864890         0.0083662509        -0.8263423643
H         -0.6597225605         1.0802001616        -1.6789840238
H         -0.5870532006        -0.7986705122        -1.7586096415
H          2.0238137403        -1.0929755711        -1.8742064586
H          1.7570874548         0.8073694433        -1.8391631386
H          3.0555658522         0.1299008639        -0.9359632496
          10
ANG Step:         27 Time:      558.1007016889
N          0.0373631152        -0.0804052555        -0.1272085539
N          1.1966693647         0.0703397723        -0.0626632443
C         -0.8007100009         0.0466542595        -1.2004868490
C          2.0451881396        -0.0402048068        -1.2115397117
H         -1.7416566135         0.0021442762        -0.8307606064
H         -0.6739261795         1.0691765506        -1.6918577113
H         -0.5926778598        -0.8116822823        -1.7543475122
H          2.0212339395        -1.1100136073        -1.8622006092
H          1.7673382122         0.7882395045        -1.8065710578
H          3.0567707533         0.1227841800        -0.9128733029
          10
ANG Step:         28 Time:      578.7710980477
N          0.0383819585        -0.0831792518        -0.1300929627
N          1.1949660418         0.0705459274        -0.0630139505
C         -0.8036334520         0.0520537903        -1.1957318770
C          2.0511858369        -0.0365545103        -1.2169594630
H         -1.7572841531        -0.0045314340        -0.8336945911
H         -0.6884129359         1.0540554937        -1.7046523722
H         -0.5986915675        -0.8266127102        -1.7554316788
H          2.0179324370        -1.1196574839        -1.8452475608
H          1.7773229411         0.7700534446        -1.7773480245
H          3.0591247472         0.1152689352        -0.8893709676
          10
ANG Step:         29 Time:      599.4414944066
N          0.0384339529        -0.0861961354        -0.1325386256
N          1.1945828873         0.0709085729        -0.0632671981
C         -0.8065455492         0.0577990589        -1.1913108624
C          2.0574293410        -0.0337735981        -1.2223044886
H         -1.7793347032        -0.0115197480        -0.8353544100
H         -0.7029237069         1.0355983274        -1.7173527735
H         -0.6054429869        -0.8419133958        -1.7608672935
H          2.0140996619        -1.1215790479        -1.8237283732
H          1.7861336261         0.7559812591        -1.7540638948
H          3.0623976826         0.1073718722        -0.8658764320
          10
ANG Step:         30 Time:      620.1118907654
N          0.0375199938        -0.0894458875        -0.1345451010
N          1.1955159022         0.0714404855        -0.0634253907
C         -0.8095953864         0.0636418298        -1.1872722717
C          2.0640027541        -0.0321430247        -1.2272874302
H         -1.8058913186        -0.0186213523        -0.8361853008
H         -0.7171852087         1.0148017508        -1.7300495903
H         -0.6132531465        -0.8560511395        -1.7695950399
H          2.0099115843        -1.1157013619        -1.7981534998
H          1.7928821422         0.7491577098        -1.7390675865
H          3.0662494795         0.0991363249        -0.8428709078
          10
ANG Step:         31 Time:      640.7822871243
N          0.0356864989        -0.0929132235        -0.1361144835
N          1.1977117060         0.0721493582        -0.0634910561
C         -0.8129606896         0.0693312626        -1.1836385213
C          2.0709694728        -0.0318403212        -1.2316789584
H         -1.8347430280        -0.0255870011        -0.8367156211
H         -0.7309240188         0.9928588171        -1.7429428869
H         -0.6223749388        -0.8676905100        -1.7806037106
H          2.0055268843        -1.1022598218        -1.7691749583
H          1.7970153453         0.7517492302        -1.7338759514
H          3.0703011454         0.0906348144        -0.8208677671
          10
ANG Step:         32 Time:      661.4526834831
N          0.0330215173        -0.0965774741        -0.1372512197
N          1.2010721519         0.0730376459        -0.0634676912
C         -0.8168185010         0.0746298487        -1.1804127604
C          2.0783416161        -0.0328590521        -1.2353475557
H         -1.8637312596        -0.0321400434        -0.8374360769
H         -0.7438821646         0.9710843244        -1.7563239548
H         -0.6329769581        -0.8757861182        -1.7929893385
H          2.0010784333        -1.0819107373        -1.7376204162
H          1.7986060893         0.7641074460        -1.7386911319
H          3.0742030163         0.0819652371        -0.8003772604
          10
ANG Step:         33 Time:      682.1230798420
N          0.0296475735        -0.1004130988        -0.1379620715
N          1.2054622840         0.0741031137        -0.0633605411
C         -0.8213247590         0.0793274816        -1.1775872766
C          2.0860718281        -0.0349813561        -1.2382584418
H         -1.8909747047        -0.0380020557        -0.8387325175
H         -0.7558319524         0.9507987121        -1.7705244699
H         -0.6451433911        -0.8796071943        -1.8059762939
H          1.9966538640        -1.0558848568        -1.7045458630
H          1.7984057073         0.7846016595        -1.7523792346
H          3.0776846309         0.0732432573        -0.7818745149
          10
ANG Step:         34 Time:      702.7934762008
N          0.0257123869        -0.1043907928        -0.1382562455
N          1.2107204455         0.0753399506        -0.0631771538
C         -0.8266037964         0.0832546363        -1.1751529491
C          2.0940726077        -0.0378155311        -1.2404314452
H         -1.9149722402        -0.0429134700        -0.8408638339
H         -0.7665876604         0.9331805548        -1.7858302867
H         -0.6588817062        -0.8787238271        -1.8189176354
H          1.9922609533        -1.0261677855        -1.6712939495
H          1.7976067760         0.8102528351        -1.7729229830
H          3.0805821766         0.0645936032        -0.7657760673
          10
ANG Step:         35 Time:      723.4638725597
N          0.0213787520        -0.1084790192        -0.1381456649
N          1.2166690343         0.0767401737        -0.0629274593
C         -0.8327450233         0.0862938151        -1.1731089556
C          2.1022479908        -0.0408625577        -1.2418883227
H         -1.9346234219        -0.0466466373        -0.8439658351
H         -0.7760125660         0.9191182188        -1.8023738638
H         -0.6741325727        -0.8729782158        -1.8312880789
H          1.9877793371        -0.9956474113        -1.6395253957
H          1.7974924857         0.8376798573        -1.7980236843
H          3.0828492933         0.0561414833        -0.7524240084
          10
ANG Step:         36 Time:      744.1342689185
N          0.0168146941        -0.1126457050        -0.1376453798
N          1.2231245889         0.0782950381        -0.0626232818
C         -0.8398033261         0.0883868523        -1.1714705377
C          2.1105187439        -0.0435782901        -1.2426212633
H         -1.9492098057        -0.0490124920        -0.8480647851
H         -0.7840212600         0.9091041642        -1.8200373695
H         -0.6907790417        -0.8624555539        -1.8426782671
H          1.9829157799        -0.9680872820        -1.6111631766
H          1.7991730340         0.8638213118        -1.8255418606
H          3.0845596344         0.0480049158        -0.7420738844
          10
ANG Step:         37 Time:      764.8046652774
N          0.0121847501        -0.1168598113        -0.1367741246
N          1.2299063044         0.0799962365        -0.0622774220
C         -0.8478004161         0.0895358520        -1.1702719565
C          2.1188313507        -0.0454360054        -1.2425960372
H         -1.9583686332        -0.0498633400        -0.8530907754
H         -0.7905786573         0.9032071142        -1.8384040017
H         -0.7086538607        -0.8474620161        -1.8527953813
H          1.9772081159        -0.9477025226        -1.5881748560
H          1.8034736300         0.8862640957        -1.8536933706
H          3.0859068143         0.0402893934        -0.7348832748
          10
ANG Step:         38 Time:      785.4750616362
N          0.0076428976        -0.1210925469        -0.1355549987
N          1.2368425656         0.0818367216        -0.0619026078
C         -0.8567254488         0.0897975722        -1.1695629864
C          2.1271485988        -0.0460111729        -1.2417854661
H         -1.9620768524        -0.0490941833        -0.8588863730
H         -0.7956974333         0.9011281701        -1.8567791809
H         -0.7275449491        -0.8285122252        -1.8614722792
H          1.9701417240        -0.9381858999        -1.5721704426
H          1.8109329475         0.9032855893        -1.8810722855
H          3.0872033482         0.0330860853        -0.7309004096
          10
ANG Step:         39 Time:      806.1454579951
N          0.0033273309        -0.1253181189        -0.1340161903
N          1.2437755496         0.0838110250        -0.0615107029
C         -0.8665341902         0.0892735017        -1.1693998290
C          2.1354258485        -0.0450798215        -1.2402133309
H         -1.9606532442        -0.0466442466        -0.8652090598
H         -0.7994347882         0.9023142944        -1.8742738267
H         -0.7471998335        -0.8063248528        -1.8686849113
H          1.9613925696        -0.9414403862        -1.5639487758
H          1.8218501841         0.9137647093        -1.9065960652
H          3.0888751342         0.0264723903        -0.7300558006
          10
ANG Step:         40 Time:      826.8158543539
N         -0.0006428918        -0.1295140519        -0.1321915899
N          1.2505642171         0.0859150394        -0.0611125231
C         -0.8771467920         0.0880988522        -1.1698334849
C          2.1435872506        -0.0426736511        -1.2379792537
H         -1.9547784324        -0.0424993200        -0.8717279237
H         -0.8018883540         0.9060870571        -1.8899185559
H         -0.7673305351        -0.7818214009        -1.8745748198
H          1.9510741051        -0.9567914526        -1.5632686180
H          1.8363391024         0.9170623310        -1.9294362238
H          3.0914430327         0.0205109171        -0.7321633247
          10
ANG Step:         41 Time:      847.4862507128
N         -0.0041694954        -0.1336612042        -0.1301211187
N          1.2570860618         0.0881454326        -0.0607183120
C         -0.8884449223         0.0864326976        -1.1708991293
C          2.1515203217        -0.0390427684        -1.2352471286
H         -1.9455244707        -0.0366942054        -0.8780167687
H         -0.8031906315         0.9117516875        -1.9027738170