10
ANG Step:        290 Time:     5994.4149440659
N     0.01797132     0.09253751    -1.27772067
N     1.13935723    -0.34582319    -0.96236514
C    -1.10210660     0.05283183    -0.25257676
C     2.43185326     0.14321868    -0.44020528
H    -2.00043906     0.25107443    -0.80287598
H    -1.34574637    -0.94071202     0.31176687
H    -0.81869992     0.76723842     0.40175845
H     2.13992123     1.30445758    -0.55144185
H     2.47880367     0.02246093     0.67464268
H     3.43330474    -0.22293242    -0.87720935
