10
ANG Step:        250 Time:     5167.5990897120
N     0.12047926     0.24604692    -1.12002543
N     1.08559634    -0.36437694    -0.71779298
C    -1.11617401    -0.05173878    -0.42209378
C     2.39567518     0.15400705    -0.60924720
H    -1.96666354     0.41731948    -0.83827713
H    -1.45811971    -1.07860678    -0.52773945
H    -0.93482960     0.10294272     0.55685471
H     2.39832095     1.21664317    -1.08864083
H     2.60674035     0.41350544     0.41320640
H     3.16269961    -0.64857837    -0.91678708
