10
ANG Step:        244 Time:     5043.5767115589
N     0.13612601     0.26034863    -1.07756813
N     1.10492355    -0.33107847    -0.69864484
C    -1.14430460    -0.07690134    -0.44547129
C     2.38505488     0.13325485    -0.63768277
H    -1.95820558     0.59029220    -0.94214541
H    -1.55984702    -1.19108082    -0.60729668
H    -0.89904120     0.04912788     0.61114596
H     2.25700461     1.10728513    -1.30860099
H     2.63416744     0.33973201     0.44681550
H     3.30953668    -0.58678864    -0.84033143
