10
ANG Step:        340 Time:     7027.9347620083
N    -0.00350084     0.05532827    -1.18749861
N     1.23033627    -0.47939110    -1.24650098
C    -0.93647235     0.15467334    -0.22370351
C     2.23864504     0.16850312    -0.32307698
H    -1.93768283    -0.07543122    -0.55791108
H    -0.86259413    -0.38462610     0.59551404
H    -1.02570823     1.23739596     0.15568316
H     1.81766782     1.07458800    -0.07550385
H     2.07802123    -0.05145403     0.75214431
H     3.17994642     0.24014651    -0.75746621
