          10
ANG Step:          0 Time:        0.0000000000
N          0.0219782747         0.0342372627         0.0135585520
N          1.2441092014        -0.0151947732        -0.0227642616
C         -0.8058666986        -0.0030974065        -1.2926881665
C          2.0369827209        -0.0312101838        -1.2686801904
H         -1.8979767161        -0.1869060621        -1.2487337286
H         -0.8788893169         1.0564802673        -1.5741711448
H         -0.4044303281        -0.7113812402        -1.9880325803
H          1.8449895989        -0.8945687264        -1.8917348169
H          1.7457404502         0.6183581471        -1.9518382774
H          3.1413004703         0.2594198395        -0.9361302462
          10
ANG Step:          1 Time:       20.6703963588
N          0.0149111545         0.0351594982         0.0094672720
N          1.2451575060        -0.0167681240        -0.0230877760
C         -0.8024141071        -0.0012732753        -1.2868692305
C          2.0383301608        -0.0295341133        -1.2653315359
H         -1.9086375621        -0.1933277258        -1.2266491246
H         -0.8685260023         1.0655053616        -1.5802755419
H         -0.3898499707        -0.7395402082        -2.0035182887
H          1.8524366120        -0.9117238784        -1.8925366507
H          1.7437032891         0.6419322553        -1.9719573529
H          3.1480809789         0.2459241681        -0.9635214828
          10
ANG Step:          2 Time:       41.3407927177
N          0.0072216426         0.0359888781         0.0050962596
N          1.2466016303        -0.0183719948        -0.0236485516
C         -0.7992256002         0.0007668423        -1.2808945739
C          2.0402796295        -0.0280340309        -1.2615307238
H         -1.9156530450        -0.2011555812        -1.2018011547
H         -0.8559421823         1.0722448800        -1.5881685998
H         -0.3755318565        -0.7650843052        -2.0177285891
H          1.8622863588        -0.9306192962        -1.8904035531
H          1.7390834005         0.6729518235        -1.9948394113
H          3.1485620833         0.2290381721        -0.9933893919
          10
ANG Step:          3 Time:       62.0111890765
N         -0.0009298811         0.0367240815         0.0004692284
N          1.2483319988        -0.0199931922        -0.0244394868
C         -0.7963070376         0.0029034745        -1.2749041447
C          2.0426890963        -0.0265926943        -1.2576243378
H         -1.9180983380        -0.2099690632        -1.1746887652
H         -0.8414098451         1.0760706439        -1.5976272562
H         -0.3625398477        -0.7864466293        -2.0291331730
H          1.8743762433        -0.9498436231        -1.8848868029
H          1.7330950618         0.7080733504        -2.0175983168
H          3.1431581361         0.2091962900        -1.0249583612
          10
ANG Step:          4 Time:       82.6815854354
N         -0.0093760493         0.0373637229        -0.0043820291
N          1.2502364216        -0.0216172559        -0.0254527313
C         -0.7936626603         0.0050428421        -1.2690038931
C          2.0454057181        -0.0251246577        -1.2539118769
H         -1.9153717205        -0.2193662139        -1.1458398048
H         -0.8252491227         1.0765460200        -1.6084307384
H         -0.3516473393        -0.8025536525        -2.0366639110
H          1.8884388245        -0.9681210627        -1.8757278191
H          1.7267622800         0.7443382478        -2.0378374162
H          3.1327080977         0.1869600209        -1.0573678803
          10
ANG Step:          5 Time:      103.3519817942
N         -0.0179474997         0.0379069112        -0.0094166233
N          1.2522053576        -0.0232286831        -0.0266801382
C         -0.7912916138         0.0071098690        -1.2632743711
C          2.0482650238        -0.0235868437        -1.2506282277
H         -1.9071970958        -0.2289723994        -1.1157962651
H         -0.8078175261         1.0734356275        -1.6203696592
H         -0.3433877698        -0.8127452428        -2.0396303130
H          1.9041067481        -0.9843827163        -1.8628701751
H          1.7208633534         0.7793740442        -2.0538140996
H          3.1185328550         0.1630115366        -1.0897003244
          10
ANG Step:          6 Time:      124.0223781531
N         -0.0264768917         0.0383538500        -0.0145839304
N          1.2541359153        -0.0248113247        -0.0281133560
C         -0.7891847840         0.0090419729        -1.2577785833
C          2.0510855552        -0.0219718333        -1.2479451791
H         -1.8936243102        -0.2384497993        -1.0850997744
H         -0.7894998756         1.0667083149        -1.6332540503
H         -0.3381025299        -0.8166967376        -2.0376407665
H          1.9209243347        -0.9978097880        -1.8464548712
H          1.7159565367         0.8113807105        -2.0643855215
H          3.1024624845         0.1381303469        -1.1210212667
          10
ANG Step:          7 Time:      144.6927745119
N         -0.0348019449         0.0387064192        -0.0198233898
N          1.2559345096        -0.0263488804        -0.0297436582
C         -0.7873224649         0.0107853805        -1.2525676476
C          2.0536688413        -0.0202936120        -1.2459787852
H         -1.8750318743        -0.2475083412        -1.0542758956
H         -0.7706988746         1.0565347820        -1.6469201410
H         -0.3359752685        -0.8143642593        -2.0305472693
H          1.9383630923        -1.0078566282        -1.8268068229
H          1.7124291218         0.8390327516        -2.0688804546
H          3.0867770971         0.1131458371        -1.1504354447
          10
ANG Step:          8 Time:      165.3631708708
N         -0.0427676175         0.0389686818        -0.0250647916
N          1.2575182222        -0.0278254113        -0.0315615786
C         -0.7856731571         0.0122945278        -1.2476839614
C          2.0558125739        -0.0185715337        -1.2447960774
H         -1.8521312038        -0.2559180852        -1.0238159610
H         -0.7518261220         1.0432796897        -1.6612354669
H         -0.3370495633        -0.8059594925        -2.0184180418
H          1.9558401518        -1.0142609172        -1.8044176519
H          1.7105416799         0.8613717597        -2.0669753477
H          3.0739972627         0.0888662343        -1.1771517933
          10
ANG Step:          9 Time:      186.0335672296
N         -0.0502276443         0.0391472732        -0.0302291371
N          1.2588150900        -0.0292258092        -0.0335564106
C         -0.7841940244         0.0135346780        -1.2431618764
C          2.0573401028        -0.0168161627        -1.2444201105
H         -1.8259657318        -0.2635219461        -0.9941562622
H         -0.7332933202         1.0274864747        -1.6761015135
H         -0.3412296733        -0.7919545141        -2.0015379572
H          1.9727400671        -1.0170454268        -1.7799266984
H          1.7104585295         0.8777211432        -2.0586029996
H          3.0664944251         0.0659997349        -1.2005383929
          10
ANG Step:         10 Time:      206.7039635885
N         -0.0570456772         0.0392516390        -0.0352301712
N          1.2597636702        -0.0305361863        -0.0357156496
C         -0.7828338850         0.0144876780        -1.2390257987
C          2.0581401646        -0.0150203680        -1.2448348715
H         -1.7978927597        -0.2702459154        -0.9656566490
H         -0.7155035422         1.0098521506        -1.6914527993
H         -0.3482648785        -0.7731154067        -1.9804357363
H          1.9884410924        -1.0165121422        -1.7540996254
H          1.7122640305         0.8876333756        -2.0438986494
H          3.0659902453         0.0450979462        -1.2201435160
          10
ANG Step:         11 Time:      227.3743599473
N         -0.0630962631         0.0392940921        -0.0399766735
N          1.2603123229        -0.0317441711        -0.0380245039
C         -0.7815398840         0.0151604117        -1.2352855009
C          2.0582004507        -0.0131583903        -1.2459909895
H         -1.7695313412        -0.2761017468        -0.9385839893
H         -0.6988425659         0.9911893663        -1.7072512372
H         -0.3577189249        -0.7505611598        -1.9559354210
H          2.0023465078        -1.0132257022        -1.7278023873
H          1.7159666331         0.8908726617        -2.0231807840
H          3.0731332068         0.0265477486        -1.2356743639
          10
ANG Step:         12 Time:      248.0447563062
N         -0.0682658804         0.0392896596        -0.0443755542
N          1.2604186127        -0.0328391195        -0.0404656020
C         -0.7802686352         0.0155946995        -1.2319286428
C          2.0576170795        -0.0111933339        -1.2478108658
H         -1.7426598479        -0.2811756257        -0.9131093649
H         -0.6836704023         0.9723743479        -1.7234749641
H         -0.3689298741        -0.7258375467        -1.9292237026
H          2.0139195771        -1.0079801304        -1.7019678242
H          1.7214918800         0.8874354425        -1.9969637218
H          3.0873621948         0.0106085100        -1.2469535370
          10
ANG Step:         13 Time:      268.7151526650
N         -0.0724541823         0.0392556960        -0.0483356937
N          1.2600490467        -0.0338122579        -0.0430189739
C         -0.7790011001         0.0158758460        -1.2289117360
C          2.0565748528        -0.0090913247        -1.2501906353
H         -1.7190562430        -0.2855974880        -0.8893287364
H         -0.6703131903         0.9542821903        -1.7401018365
H         -0.3809751069        -0.7009791162        -1.9019093599
H          2.0227178265        -1.0017414814        -1.6775530122
H          1.7286635750         0.8776133693        -1.9660010047
H          3.1071213775        -0.0025380497        -1.2538858568
          10
ANG Step:         14 Time:      289.3855490239
N         -0.0755755107         0.0392112576        -0.0517723180
N          1.2591791518        -0.0346567773        -0.0456622919
C         -0.7777573032         0.0161346352        -1.2261537092
C          2.0553105624        -0.0068406061        -1.2529977818
H         -1.7002957143        -0.2894916032        -0.8673111063
H         -0.6590556912         0.9377148709        -1.7570890748
H         -0.3926736780        -0.6785022232        -1.8760222448
H          2.0284200735        -0.9955603626        -1.6554876216
H          1.7371706740         0.8621044834        -1.9313589376
H          3.1302908479        -0.0127573004        -1.2564505294
          10
ANG Step:         15 Time:      310.0559453827
N         -0.0775606188         0.0391762836        -0.0546115021
N          1.2577937733        -0.0353678870        -0.0483713354
C         -0.7766031870         0.0165350548        -1.2235402290
C          2.0540779368        -0.0044750070        -1.2560656170
H         -1.6875472684        -0.2929189111        -0.8471648985
H         -0.6501346888         0.9233313708        -1.7743518681
H         -0.4026782216        -0.6612368795        -1.8538658302
H          2.0308400894        -0.9904540513        -1.6366168862
H          1.7465187740         0.8421724500        -1.8945139039
H          3.1546221509        -0.0199570492        -1.2547085966
          10
ANG Step:         16 Time:      330.7263417416
N         -0.0783584834         0.0391706868        -0.0567942485
N          1.2558875098        -0.0359428434        -0.0511206480
C         -0.7756409832         0.0172407966        -1.2209478557
C          2.0531256351        -0.0020998597        -1.2591877372
H         -1.6814266530        -0.2958300391        -0.8290983436
H         -0.6437337397         0.9115913586        -1.7917445419
H         -0.4097051910        -0.6519083829        -1.8376417341
H          2.0299245641        -0.9872694612        -1.6216466014
H          1.7559730572         0.8198294764        -1.8574483797
H          3.1780418015        -0.0240960060        -1.2488084397
          10
ANG Step:         17 Time:      351.3967381004
N         -0.0779381479         0.0392134793        -0.0582796326
N          1.2534653082        -0.0363809852        -0.0538843983
C         -0.7749814344         0.0183633637        -1.2182877761
C          2.0526878404         0.0000877289        -1.2621179333
H         -1.6819496840        -0.2980470934        -0.8134460605
H         -0.6399795803         0.9027222131        -1.8090480190
H         -0.4128826574        -0.6524953054        -1.8288780964
H          2.0257386809        -0.9865534732        -1.6111000261
H          1.7645198081         0.7979594286        -1.8226813153
H          3.1988003180        -0.0251919323        -1.2389807436
          10
ANG Step:         18 Time:      372.0671344593
N         -0.0762906593         0.0393220302        -0.0590467944
N          1.2505432771        -0.0366838236        -0.0566374197
C         -0.7747103530         0.0199133356        -1.2155492894
C          2.0529781739         0.0018020014        -1.2645849053
H         -1.6885906930        -0.2992805903        -0.8006486445
H         -0.6389401137         0.8967135471        -1.8259666247
H         -0.4120644481        -0.6636187319        -1.8279089715
H          2.0184469533        -0.9884668051        -1.6052948952
H          1.7709072117         0.7802010592        -1.7931148057
H          3.2155110501        -0.0233247141        -1.2255239556
          10
ANG Step:         19 Time:      392.7375308181
N         -0.0734311742         0.0395115103        -0.0590958477
N          1.2471497225        -0.0368552101        -0.0593563268
C         -0.7748699320         0.0217857919        -1.2128130408
C          2.0541745627         0.0027176774        -1.2663322356
H         -1.7004122195        -0.2991732594        -0.7911950434
H         -0.6406234431         0.8933372642        -1.8421361202
H         -0.4079025257        -0.6843381535        -1.8337485002
H          2.0082972040        -0.9927702936        -1.6043426020
H          1.7738494220         0.7703522974        -1.7715678495
H          3.2271357575        -0.0186360747        -1.2087850664
          10
ANG Step:         20 Time:      413.4079271770
N         -0.0694010836         0.0397945620        -0.0584477977
N          1.2433263453        -0.0369015196        -0.0620205845
C         -0.7754639411         0.0237910820        -1.2102234673
C          2.0563891063         0.0025697292        -1.2671816992
H         -1.7162191635        -0.2973545771        -0.7855509962
H         -0.6449774397         0.8921878420        -1.8571431360
H         -0.4016177044        -0.7124983596        -1.8444620795
H          1.9956114688        -0.9988860106        -1.6081645286
H          1.7724195448         0.7712441795        -1.7600209849
H          3.2329587177        -0.0113284974        -1.1891401668
          10
ANG Step:         21 Time:      434.0783235358
N         -0.0642697331         0.0401812492        -0.0571433666
N          1.2391295577        -0.0368317044        -0.0646135479
C         -0.7764765443         0.0257093317        -1.2079412107
C          2.0596346524         0.0012598032        -1.2670900370
H         -1.7347023713        -0.2934912666        -0.7840946840
H         -0.6518897312         0.8927367007        -1.8705540273
H         -0.3946293064        -0.7453797517        -1.8577726153
H          1.9807820832        -1.0060048413        -1.6165172309
H          1.7664701370         0.7835780784        -1.7589295502
H          3.2325710038        -0.0016631263        -1.1669777283
          10
ANG Step:         22 Time:      454.7487198947
N         -0.0581353378         0.0406793273        -0.0552405989
N          1.2346319157        -0.0366571096        -0.0671235947
C         -0.7778889288         0.0273375858        -1.2061038943
C          2.0638132649        -0.0011068066        -1.2661567492
H         -1.7545551796        -0.2873252763        -0.7870707886
H         -0.6611884463         0.8943934118        -1.8819488172
H         -0.3882503816        -0.7802841106        -1.8715613341
H          1.9642683830        -1.0131998678        -1.6290200398
H          1.7567756047         0.8055878495        -1.7671120051
H          3.2258720113         0.0100461357        -1.1426856273
          10
ANG Step:         23 Time:      475.4191162535
N         -0.0511249009         0.0412948009        -0.0528112857
N          1.2299234812        -0.0363911076        -0.0695452311
C         -0.7796866551         0.0285146491        -1.2048076051
C          2.0687373433        -0.0042803634        -1.2645756078
H         -1.7745597911        -0.2786971741        -0.7945650730
H         -0.6726441835         0.8965655637        -1.8909548415
H         -0.3835347394        -0.8148718474        -1.8841197845
H          1.9465904776        -1.0195196593        -1.6451827207
H          1.7447697714         0.8338180819        -1.7823052262
H          3.2130894932         0.0234447821        -1.1166401199
          10
ANG Step:         24 Time:      496.0895126123
N         -0.0433931653         0.0420326484        -0.0499365326
N          1.2251126904        -0.0360487496        -0.0718797452
C         -0.7818593742         0.0291262277        -1.2041055347
C          2.0741657773        -0.0079668862        -1.2625682271
H         -1.7936475514        -0.2675570551        -0.8064961791
H         -0.6859734360         0.8987105761        -1.8972758708
H         -0.3812480899        -0.8472714953        -1.8941976771
H          1.9283190370        -1.0240584891        -1.6644331286
H          1.7320938989         0.8643611169        -1.8019413637
H          3.1948161031         0.0381564011        -1.0891922057
          10
ANG Step:         25 Time:      516.7599089712
N         -0.0351206070         0.0428975642        -0.0467019652
N          1.2203262392        -0.0356466000        -0.0741350833
C         -0.7843970863         0.0290992245        -1.2040153675
C          2.0798322188        -0.0119031160        -1.2603381357
H         -1.8109400676        -0.2539665280        -0.8226193926
H         -0.7008433292         0.9003760470        -1.9007147096
H         -0.3819023666        -0.8760579677        -1.9009465238
H          1.9100613606        -1.0260106784        -1.6861448159
H          1.7202405723         0.8937750485        -1.8236983190
H          3.1720521570         0.0538068472        -1.0606467569
          10
ANG Step:         26 Time:      537.4303053300
N         -0.0265103371         0.0438945788        -0.0431930787
N          1.2157075658        -0.0352027705        -0.0763250028
C         -0.7872859242         0.0283925153        -1.2045289329
C          2.0854591460        -0.0158865093        -1.2580541706
H         -1.8257782131        -0.2380949506        -0.8425374366
H         -0.7168772619         0.9012284082        -1.9011890614
H         -0.3858073292        -0.9001818960        -1.9038343407
H          1.8924440520        -1.0247142228        -1.7096639793
H          1.7103932204         0.9194551791        -1.8457192798
H          3.1462300622         0.0700521326        -1.0312338736
          10
ANG Step:         27 Time:      558.1007016889
N         -0.0177837091         0.0450294676        -0.0394911473
N          1.2114136452        -0.0347370445        -0.0784677968
C         -0.7905047325         0.0269882088        -1.2056207362
C          2.0907652268        -0.0197743169        -1.2558526729
H         -1.8377444438        -0.2202118183        -0.8657149372
H         -0.7336610962         0.9010714185        -1.8987412750
H         -0.3931164496        -0.9188966107        -1.9025692058
H          1.8760925220        -1.0196852186        -1.7343351914
H          1.7034092438         0.9396308947        -1.8666148610
H          3.1191811716         0.0866060060        -1.0010800593
          10
ANG Step:         28 Time:      578.7710980477
N         -0.0091743621         0.0463088895        -0.0356699544
N          1.2076098564        -0.0342709443        -0.0805848792
C         -0.7940227875         0.0248850371        -1.2072540939
C          2.0954763719        -0.0234697781        -1.2538455827
H         -1.8466808766        -0.2006757573        -0.8914952238
H         -0.7507498221         0.8998560351        -1.8935423413
H         -0.4038590059        -0.9317033599        -1.8970449957
H          1.8616076798        -1.0106436998        -1.7595258535
H          1.6998664671         0.9532112543        -1.8853783841
H          3.0929992819         0.1032578608        -0.9701976270
          10
ANG Step:         29 Time:      599.4414944066
N         -0.0009205329         0.0477402339        -0.0317934905
N          1.2044628588        -0.0338276249        -0.0826994007
C         -0.7977987559         0.0220944040        -1.2093845766
C          2.0993468446        -0.0269054484        -1.2521255529
H         -1.8527021193        -0.1799194465        -0.9191199074
H         -0.7676749501         0.8976821422        -1.8858898656
H         -0.4179571882        -0.9383224341        -1.8873116011
H          1.8495405385        -0.9975321251        -1.7846497884
H          1.7001213230         0.9596135382        -1.9012900526
H          3.0697735692         0.1198661796        -0.9385184790
          10
ANG Step:         30 Time:      620.1118907654
N          0.0067443394         0.0493311761        -0.0279146965
N          1.2021316639        -0.0334315202        -0.0848349513
C         -0.8017811720         0.0186393400        -1.2119608053
C          2.1021892567        -0.0300270976        -1.2507638352
H         -1.8561978975        -0.1584292420        -0.9477528657
H         -0.7839530386         0.8947910250        -1.8761988336
H         -0.4352291982        -0.9386936087        -1.8735686846
H          1.8403661912        -0.9805277218        -1.8091903582
H          1.7043568663         0.9586284243        -1.9138400406
H          3.0512229034         0.1363152778        -0.9059905895
          10
ANG Step:         31 Time:      640.7822871243
N          0.0136023720         0.0510889700        -0.0240752667
N          1.2007574343        -0.0331077247        -0.0870143508
C         -0.8059110220         0.0145567571        -1.2149227145
C          2.1039038187        -0.0327797018        -1.2498015648
H         -1.8578170152        -0.1367185810        -0.9765104723
H         -0.7990957592         0.8915460115        -1.8649834515
H         -0.4553795755        -0.9330092525        -1.8561822347
H          1.8344595631        -0.9600490039        -1.8327228782
H          1.7126151882         0.9503338917        -1.9226776629
H          3.0383467706         0.1524413870        -0.8727217750
          10
ANG Step:         32 Time:      661.4526834831
N          0.0194625769         0.0530195343        -0.0203064618
N          1.2004529199        -0.0328811327        -0.0892585115
C         -0.8101272305         0.0099035990        -1.2181974230
C          2.1044933549        -0.0350982057        -1.2492396681
H         -1.8584220756        -0.1152956416        -1.0044990328
H         -0.8126216213         0.8883983913        -1.8528287067
H         -0.4779781299        -0.9217841129        -1.8357237597
H          1.8320761902        -0.9367551532        -1.8549350117
H          1.7248150129         0.9350552562        -1.9275862081
H          3.0312480558         0.1679610415        -0.8391101266
          10
ANG Step:         33 Time:      682.1230798420
N          0.0241716277         0.0551264229        -0.0166307827
N          1.2012926662        -0.0327754032        -0.0915853678
C         -0.8143755625         0.0047674236        -1.2216930658
C          2.1040564616        -0.0369064560        -1.2490338754
H         -1.8590066377        -0.0946283441        -1.0308581202
H         -0.8240691272         0.8858369639        -1.8403517235
H         -0.5024304075        -0.9059637093        -1.8130305924
H          1.8333414238        -0.9115351301        -1.8756424402
H          1.7407563039         0.9133663558        -1.9284826146
H          3.0292139255         0.1824440699        -0.8058881068
          10
ANG Step:         34 Time:      702.7934762008
N          0.0276226555         0.0574098055        -0.0130642442
N          1.2033052337        -0.0328118480        -0.0940088922
C         -0.8186204154        -0.0007190706        -1.2252915665
C          2.1027632884        -0.0381258971        -1.2490974893
H         -1.8605746500        -0.0751126215        -1.0548056168
H         -0.8330107765         0.8843233756        -1.8281558021
H         -0.5279472083        -0.8870622120        -1.7892788399
H          1.8382508680        -0.8854813836        -1.8947955601
H          1.7601131581         0.8861283405        -1.9254434355
H          3.0310001153         0.1953486168        -0.7740530279
          10
ANG Step:         35 Time:      723.4638725597
N          0.0297607390         0.0598656276        -0.0096188816
N          1.2064685734        -0.0330083700        -0.0965382598
C         -0.8228569403        -0.0063628859        -1.2288427741
C          2.1008262382        -0.0386925507        -1.2493090154
H         -1.8639966478        -0.0570513824        -1.0756778518
H         -0.8390673073         0.8842210368        -1.8167832223
H         -0.5535302157        -0.8672914361        -1.7660430671
H          1.8466835710        -0.8598416403        -1.9124714517
H          1.7824165388         0.8545628073        -1.9187603741
H          3.0351722424         0.2060974415        -0.7447226606
          10
ANG Step:         36 Time:      744.1342689185
N          0.0305841942         0.0624851262        -0.0063050597
N          1.2107093509        -0.0333785751        -0.0991772778
C         -0.8271184230        -0.0119036575        -1.2321649274
C          2.0984760044        -0.0385789175        -1.2495195946
H         -1.8698725708        -0.0406496209        -1.0929579707
H         -0.8419217859         0.8857311625        -1.8066751191
H         -0.5780050027        -0.8495861135        -1.7452852006
H          1.8584276152        -0.8359426824        -1.9288446894
H          1.8070314008         0.8203509633        -1.9090265933
H          3.0403776830         0.2141578816        -0.7189827912
          10
ANG Step:         37 Time:      764.8046652774
N          0.0301414638         0.0652548465        -0.0031331681
N          1.2159064630        -0.0339311703        -0.1019241843
C         -0.8314724902        -0.0170296632        -1.2350590771
C          2.0959461649        -0.0378165806        -1.2495575979
H         -1.8784378935        -0.0260255277        -1.1062882317
H         -0.8413334411         0.8888518339        -1.7981461349
H         -0.6001419734        -0.8373639344        -1.7291817234
H          1.8732147623        -0.8150845797        -1.9441328865
H          1.8331400155         0.7857342031        -1.8972434199
H          3.0455011276         0.2190987675        -0.6977736325
          10
ANG Step:         38 Time:      785.4750616362
N          0.0285241685         0.0681571961        -0.0001144126
N          1.2218983223        -0.0346697290        -0.1047718418
C         -0.8360024976        -0.0214310818        -1.2373435990
C          2.0934634435        -0.0365132818        -1.2492326243
H         -1.8895392716        -0.0132310941        -1.1154665006
H         -0.8371509044         0.8933714745        -1.7913775933
H         -0.6188836138        -0.8338697544        -1.7197147789
H          1.8907569595        -0.7984130608        -1.9585198311
H          1.8597547741         0.7535571490        -1.8849075301
H          3.0497210947         0.2206175890        -0.6818265005
          10
ANG Step:         39 Time:      806.1454579951
N          0.0258574783         0.0711714068         0.0027393171
N          1.2284928384        -0.0355928811        -0.1077082047
C         -0.8407792172        -0.0248841738        -1.2389028960
C          2.0912382759        -0.0348540928        -1.2483464078
H         -1.9026810396        -0.0022731543        -1.1204314684
H         -0.8293236699         0.8988965094        -1.7864272072
H         -0.6336175711        -0.8411868858        -1.7180951368
H          1.9107745430        -0.7867899457        -1.9720702802
H          1.8857934331         0.7271444218        -1.8739888188
H          3.0525078311         0.2185443806        -0.6716388495
          10
ANG Step:         40 Time:      826.8158543539
N          0.0222891885         0.0742746332         0.0054162102
N          1.2354786708        -0.0366949435        -0.1107168431
C         -0.8458376443        -0.0273241703        -1.2397253770
C          2.0894516083        -0.0330738423        -1.2467211648
H         -1.9171186554         0.0068712533        -1.1212430927
H         -0.8179098301         0.9049001795        -1.7832490737
H         -0.6443447367        -0.8594086931        -1.7243103489
H          1.9330068595        -0.7806903410        -1.9846604419
H          1.9102386480         0.7098779860        -1.8666697615
H          3.0535988824         0.2128327785        -0.6674694251
          10
ANG Step:         41 Time:      847.4862507128
N          0.0179787969         0.0774429196         0.0079055025
N          1.2426363876        -0.0379669346        -0.1137773769
C         -0.8511720523        -0.0288551833        -1.2399031823
C          2.0882390868        -0.0313965545        -1.2442498974
H         -1.9319665418         0.0142463417        -1.1180633830
H         -0.8030784544         0.9107752111        -1.7817173056