10
ANG Step:        370 Time:     7648.0466527737
N    -0.00235116    -0.28496802    -1.29562329
N     1.19134535     0.24891882    -0.95297402
C    -1.12515523     0.04482781    -0.32231557
C     2.40466603     0.00664361    -0.34722956
H    -0.64656608    -0.39694166     0.73630188
H    -1.54637906     1.12471315    -0.37004847
H    -1.87170920    -0.37583354    -0.82306130
H     2.61819793     0.30171863     0.67717529
H     2.44678452    -1.30515612    -0.22318521
H     3.04202287     0.53747351    -1.00030594
