10
ANG Step:        474 Time:     9797.7678740939
N     0.19812583    -0.20569939    -1.05750611
N     1.08988527     0.60174767    -0.89788366
C    -1.12953910    -0.12815260    -0.47732125
C     2.36196398    -0.14765247    -0.48350477
H    -1.54506065    -1.03628600     0.25673343
H    -1.17634150     0.71013761     0.18646366
H    -1.88345157    -0.29515859    -1.13040749
H     3.22689434     0.38334759    -0.51238854
H     2.20968947    -0.82986415     0.48250668
H     2.39456302    -1.15296153    -0.89220832
