10
ANG Step:         56 Time:     1157.5421960955
N     0.02136112    -0.09659796    -0.08867662
N     1.27771372     0.07931440    -0.08650847
C    -0.95621206     0.04995494    -1.21129537
C     2.13875177    -0.02474732    -1.23064885
H    -2.03458696     0.14984479    -0.87223260
H    -0.58941543     1.00374767    -1.84131350
H    -1.00196789    -1.05985652    -1.92580286
H     2.11223588    -1.16645435    -1.46356432
H     2.03013907     0.86646697    -1.81337960
H     3.15386201     0.14381632    -0.79044486
