10
ANG Step:         60 Time:     1240.2237815309
N     0.02317550    -0.11057857    -0.10164234
N     1.27174189     0.09212862    -0.09106691
C    -0.98003791     0.04238194    -1.20604308
C     2.15572479    -0.02691205    -1.22550567
H    -1.93229939     0.21591054    -0.87382069
H    -0.68240272     0.88756143    -1.83238637
H    -1.00328611    -0.84404210    -1.85306887
H     2.09875761    -1.23060061    -1.46935993
H     2.04791630     0.86727455    -1.84130716
H     3.28090577     0.17361778    -0.71710345
