10
ANG Step:        330 Time:     6821.2307984198
N     0.13449309    -0.26001015    -1.07494836
N     1.18785063     0.46535909    -1.31588781
C    -0.98940313    -0.05538454    -0.26548520
C     2.17508779    -0.12818454    -0.26180726
H    -0.55033940     0.02656521     0.68510171
H    -1.38092703     0.95759622    -0.62621044
H    -1.75624569    -0.63435481    -0.58295387
H     1.73091038    -0.33071969     0.67884416
H     2.26524397    -1.25435151    -0.67000280
H     2.99843154     0.56570521    -0.20517966
