10
ANG Step:        346 Time:     7151.9571401614
N     0.09479974    -0.27281023    -1.16807570
N     1.11433311     0.38327246    -1.14169707
C    -1.00032074    -0.00974501    -0.35946095
C     2.26823734    -0.07380823    -0.30234230
H    -0.88559118    -0.09214510     0.94862386
H    -1.15439721     1.16925515    -0.39331638
H    -1.72691011    -0.70505817    -0.42014129
H     1.94114278     0.05914319     0.75950480
H     2.56194565    -1.30487930    -0.67594360
H     3.16461137     0.33166258    -0.46392864
