          10
ANG Step:          0 Time:        0.0000000000
N         -0.0106812462        -0.0091955759         0.0190968148
N          1.2585365830         0.0128562597        -0.0330370359
C         -0.7592574157         0.0271332068        -1.2889736071
C          1.9667043099        -0.0087790499        -1.2527762456
H         -1.7193023335        -0.1386765074        -1.1460792717
H         -0.5567633329         0.9248264230        -1.6464919259
H         -0.3821271704        -0.8348056592        -1.9566431536
H          1.8968052765        -0.9634619685        -1.9416094249
H          1.6733172416         0.6894381505        -2.0788398708
H          3.1739319712         0.0507710765        -0.9888398681
          10
ANG Step:          1 Time:       20.6703963588
N         -0.0120450579        -0.0092650130         0.0165820649
N          1.2586796511         0.0126103817        -0.0329119865
C         -0.7595466489         0.0321291358        -1.2836789991
C          1.9676949516        -0.0112833850        -1.2562413902
H         -1.7177323249        -0.1467517128        -1.1498466337
H         -0.5508503537         0.9252988476        -1.6448506244
H         -0.3801331966        -0.8894796556        -1.9887387608
H          1.9042554745        -0.9392432233        -1.9007847783
H          1.6767786453         0.7013636721        -2.0656929936
H          3.1621443870         0.0516189510        -0.9971741100
          10
ANG Step:          2 Time:       41.3407927177
N         -0.0134128431        -0.0094283651         0.0139320493
N          1.2585737353         0.0123910839        -0.0328836615
C         -0.7588917548         0.0359374071        -1.2782792576
C          1.9697002765        -0.0139956377        -1.2600946049
H         -1.7271807780        -0.1558656016        -1.1511146862
H         -0.5435517611         0.9353318806        -1.6490357526
H         -0.3801179666        -0.9374845192        -2.0165509289
H          1.9111935742        -0.9144122062        -1.8559713045
H          1.6809999537         0.7143735770        -2.0486917008
H          3.1419120474         0.0531315596        -1.0077156867
          10
ANG Step:          3 Time:       62.0111890765
N         -0.0147706949        -0.0096904729         0.0111460561
N          1.2582106980         0.0122043940        -0.0329384735
C         -0.7573832209         0.0385405943        -1.2728648792
C          1.9726784450        -0.0166843509        -1.2641389853
H         -1.7459761682        -0.1656306438        -1.1501609747
H         -0.5352039033         0.9533891152        -1.6586323352
H         -0.3823573366        -0.9774364610        -2.0391745229
H          1.9172000524        -0.8917079321        -1.8094819787
H          1.6858504847         0.7283124325        -2.0283691301
H          3.1142212714         0.0554035205        -1.0201069208
          10
ANG Step:          4 Time:       82.6815854354
N         -0.0161051448        -0.0100550912         0.0082245259
N          1.2575864401         0.0120568863        -0.0330631179
C         -0.7552098608         0.0400440260        -1.2675263828
C          1.9765472509        -0.0190342443        -1.2681298336
H         -1.7712217618        -0.1753914992        -1.1474134604
H         -0.5264465219         0.9768165128        -1.6726600254
H         -0.3868914789        -1.0085752904        -2.0561274106
H          1.9217822654        -0.8748679659        -1.7642194235
H          1.6911638915         0.7429947867        -2.0053723548
H          3.0806110316         0.0585490663        -1.0338594013
          10
ANG Step:          5 Time:      103.3519817942
N         -0.0174029741        -0.0105243643         0.0051700981
N          1.2567015226         0.0119559495        -0.0332442746
C         -0.7525988445         0.0406067173        -1.2623604893
C          1.9811669845        -0.0206838572        -1.2718139725
H         -1.7995839865        -0.1843743629        -1.1433238968
H         -0.5180425326         1.0025462749        -1.6898379152
H         -0.3936405720        -1.0304994852        -2.0671547588
H          1.9244134551        -0.8682004709        -1.7232671271
H          1.6967363089         0.7582028266        -1.9804396776
H          3.0433383939         0.0627165589        -1.0483199711
          10
ANG Step:          6 Time:      124.0223781531
N         -0.0186511320        -0.0110984848         0.0019883806
N          1.2555616980         0.0119101053        -0.0334680535
C         -0.7497714712         0.0403909036        -1.2574662077
C          1.9863184649        -0.0213292044        -1.2749998702
H         -1.8279293042        -0.1918345719        -1.1382872795
H         -0.5107153291         1.0276870049        -1.7088347373
H         -0.4024670096        -1.0430097607        -2.0721207077
H          1.9246260041        -0.8753959648        -1.6891116549
H          1.7023240601         0.7737044359        -1.9543778079
H          3.0055503579         0.0681091474        -1.0626400481
          10
ANG Step:          7 Time:      144.6927745119
N         -0.0198366395        -0.0117756175        -0.0013114554
N          1.2541782698         0.0119289818        -0.0337198161
C         -0.7469205969         0.0395353342        -1.2529395275
C          1.9916859686        -0.0208642701        -1.2776251594
H         -1.8536655971        -0.1971479344        -1.1326107338
H         -0.5050546399         1.0498491114        -1.7284309176
H         -0.4132061568        -1.0460250197        -2.0709539618
H          1.9221573657        -0.8979055475        -1.6628618283
H          1.7076448301         0.7892866540        -1.9280351265
H          2.9713429411         0.0750015404        -1.0757766642
          10
ANG Step:          8 Time:      165.3631708708
N         -0.0209464649        -0.0125520842        -0.0047161691
N          1.2525682422         0.0120225821        -0.0339850359
C         -0.7442045570         0.0381472688        -1.2488700130
C          1.9968698229        -0.0194579538        -1.2797653549
H         -1.8748393172        -0.1998438476        -1.1265138657
H         -0.5014871276         1.0672395344        -1.7475907421
H         -0.4256778360        -1.0395462252        -2.0636266281
H          1.9170827839        -0.9340291291        -1.6440830812
H          1.7123875258         0.8047842032        -1.9022655586
H          2.9454717082         0.0837261892        -1.0865746999
          10
ANG Step:          9 Time:      186.0335672296
N         -0.0219674680        -0.0134227333        -0.0082079787
N          1.2507541732         0.0121999481        -0.0342510929
C         -0.7417497844         0.0363055875        -1.2453389509
C          2.0014586947        -0.0174919772        -1.2815688280
H         -1.8900992272        -0.1996020445        -1.1201421515
H         -0.5002856158         1.0786252390        -1.7654753157
H         -0.4396848379        -1.0236561946        -2.0501568776
H          1.9098329992        -0.9795550811        -1.6313839971
H          1.7162340142         0.8200815528        -1.8778825453
H          2.9324555111         0.0945912541        -1.0939752963
          10
ANG Step:         10 Time:      206.7039635885
N         -0.0228864786        -0.0143813865        -0.0117641622
N          1.2487635423         0.0124678065        -0.0345089803
C         -0.7396564071         0.0340695644        -1.2424172819
C          2.0051571708        -0.0154093774        -1.2831681556
H         -1.8986153410        -0.1962346146        -1.1135821340
H         -0.5015929925         1.0832497322        -1.7814278093
H         -0.4550012422        -0.9985545039        -2.0306353268
H          1.9010755569        -1.0293520814        -1.6231971951
H          1.7188913322         0.8350840284        -1.8556101094
H          2.9351515950         0.1077183393        -1.0973190797
          10
ANG Step:         11 Time:      227.3743599473
N         -0.0236904955        -0.0154212736        -0.0153569310
N          1.2466277315         0.0128297811        -0.0347540575
C         -0.7380038983         0.0314910459        -1.2401611942
C          2.0078980650        -0.0135816950        -1.2846246047
H         -1.9000030205        -0.1896668915        -1.1068734812
H         -0.5054462661         1.0807515457        -1.7949522555
H         -0.4713505460        -0.9646371575        -2.0052832185
H          1.8915476776        -1.0787153875        -1.6182415815
H          1.7201295060         0.8496696440        -1.8360397721
H          2.9535581462         0.1228696222        -1.0965827435
          10
ANG Step:         12 Time:      248.0447563062
N         -0.0243669293        -0.0165354159        -0.0189538352
N          1.2443810527         0.0132863674        -0.0349858347
C         -0.7368558848         0.0286304484        -1.2386030416
C          2.0098521730        -0.0122501261        -1.2859236411
H         -1.8942735573        -0.1799235801        -1.1000164321
H         -0.5117941023         1.0711063141        -1.8056977329
H         -0.4883706751        -0.9226414798        -1.9745589984
H          1.8819325376        -1.1239648083        -1.6156259306
H          1.7198178798         0.8636384754        -1.8195996553
H          2.9847928283         0.1393998966        -1.0923671313
          10
ANG Step:         13 Time:      268.7151526650
N         -0.0249038730        -0.0177169595        -0.0225188792
N          1.2420600807         0.0138355114        -0.0352071906
C         -0.7362644263         0.0255788532        -1.2377348618
C          2.0113318687        -0.0115309676        -1.2870042888
H         -1.8818165563        -0.1671220628        -1.0929745799
H         -0.5205057917         1.0545987289        -1.8134538338
H         -0.5055601535        -0.8738871642        -1.9393389355
H          1.8728042098        -1.1624832999        -1.6147767099
H          1.7179500360         0.8766772009        -1.8065413487
H          3.0242722624         0.1563913664        -1.0856457017
          10
ANG Step:         14 Time:      289.3855490239
N         -0.0252904880        -0.0189594806        -0.0260143553
N          1.2397031560         0.0144734871        -0.0354233226
C         -0.7362746454         0.0224890177        -1.2374817576
C          2.0126697183        -0.0114504765        -1.2877938650
H         -1.8634108323        -0.1514723410        -1.0856734049
H         -0.5313719561         1.0318231942        -1.8181602140
H         -0.5221988800        -0.8206455837        -1.9012006857
H          1.8646206659        -1.1925234132        -1.6153320432
H          1.7146483242         0.8883529664        -1.7969480359
H          3.0671596082         0.1728727062        -1.0774632771
          10
ANG Step:         15 Time:      310.0559453827
N         -0.0255175913        -0.0202572493        -0.0294031932
N          1.2373498118         0.0151957991        -0.0356406212
C         -0.7369302620         0.0196146956        -1.2376651346
C          2.0141406431        -0.0119811151        -1.2882306728
H         -1.8402546263        -0.1332811651        -1.0779950101
H         -0.5440986199         1.0037083475        -1.8199311540
H         -0.5372451649        -0.7666275552        -1.8628100295
H          1.8577383975        -1.2129820479        -1.6170568288
H          1.7101465823         0.8981398416        -1.7907609644
H          3.1092973593         0.1879892330        -1.0687389311
          10
ANG Step:         16 Time:      330.7263417416
N         -0.0255784038        -0.0216053257        -0.0326513408
N          1.2350400647         0.0159979486        -0.0358656574
C         -0.7382779438         0.0173431395        -1.2379673610
C          2.0159373710        -0.0130677651        -1.2882728171
H         -1.8139998913        -0.1129555393        -1.0697694533
H         -0.5582973528         0.9715583080        -1.8190941468
H         -0.5492474787        -0.7174084914        -1.8282794623
H          1.8524324209        -1.2232205491        -1.6197871474
H          1.7047580889         0.9054687036        -1.7878154579
H          3.1475199034         0.2010763529        -1.0601938705
          10
ANG Step:         17 Time:      351.3967381004
N         -0.0254692114        -0.0229992543        -0.0357294136
N          1.2328136435         0.0168760104        -0.0361044046
C         -0.7403610737         0.0161717989        -1.2379374771
C          2.0181778153        -0.0146432852        -1.2878983357
H         -1.7867682067        -0.0909978450        -1.0607633259
H         -0.5734755852         0.9371009414        -1.8162386763
H         -0.5564035200        -0.6802089033        -1.8030405816
H          1.8489142236        -1.2229470597        -1.6233982730
H          1.6988387901         0.9097858555        -1.7878770375
H          3.1795954833         0.2116610756        -1.0523559099
          10
ANG Step:         18 Time:      372.0671344593
N         -0.0251895170        -0.0244342141        -0.0386128690
N          1.2307092473         0.0178270109        -0.0363616928
C         -0.7431855191         0.0165511601        -1.2371047940
C          2.0209234564        -0.0166358306        -1.2871015874
H         -1.7611139221        -0.0679833328        -1.0506691659
H         -0.5890331171         0.9025248978        -1.8122659514
H         -0.5570062124        -0.6620939776        -1.7924513422
H          1.8473441422        -1.2121592502        -1.6277903820
H          1.6927536060         0.9106077085        -1.7906715689
H          3.2040391355         0.2194314717        -1.0455927764
          10
ANG Step:         19 Time:      392.7375308181
N         -0.0247415879        -0.0259039701        -0.0412810535
N          1.2287638494         0.0188490652        -0.0366408617
C         -0.7466570965         0.0186013693        -1.2352034126
C          2.0241975205        -0.0189698841        -1.2858885382
H         -1.7398750452        -0.0445154446        -1.0391094302
H         -0.6042740825         0.8704565951        -1.8084158992
H         -0.5503296495        -0.6666343844        -1.7991077926
H          1.8478354584        -1.1911434788        -1.6328891285
H          1.6868497343         0.9075646711        -1.7959073605
H          3.2199264219         0.2242010144        -1.0401476224
          10
ANG Step:         20 Time:      413.4079271770
N         -0.0241301717        -0.0274004714        -0.0437171580
N          1.2270119703         0.0199411549        -0.0369436960
C         -0.7505504601         0.0219420192        -1.2323220354
C          2.0279990839        -0.0215619475        -1.2842717821
H         -1.7258282105        -0.0211677471        -1.0256834092
H         -0.6184476330         0.8437765126        -1.8062155126
H         -0.5373016380        -0.6917572826        -1.8210681522
H          1.8504470616        -1.1605289155        -1.6386615679
H          1.6814377094         0.9004328674        -1.8032897873
H          3.2267556793         0.2258805275        -1.0361661499
          10
ANG Step:         21 Time:      434.0783235358
N         -0.0233630816        -0.0289146305        -0.0459105610
N          1.2254848763         0.0211024804        -0.0372707521
C         -0.7545767185         0.0258579627        -1.2288012863
C          2.0323125540        -0.0243112748        -1.2822650169
H         -1.7211262136         0.0015660753        -1.0100792233
H         -0.6308287315         0.8251832635        -1.8072680075
H         -0.5201606314        -0.7313205347        -1.8531424338
H          1.8551618495        -1.1213977264        -1.6451516889
H          1.6767791279         0.8891557207        -1.8125303830
H          3.2243686393         0.2244621049        -1.0337124813
          10
ANG Step:         22 Time:      454.7487198947
N         -0.0224519235        -0.0304378216        -0.0478599173
N          1.2242098256         0.0223315215        -0.0376220099
C         -0.7585056378         0.0296328577        -1.2250178595
C          2.0371127713        -0.0270862858        -1.2798760970
H         -1.7266937894         0.0232927538        -0.9922251760
H         -0.6408313455         0.8165669278        -1.8128579909
H         -0.5014653910        -0.7784530464        -1.8896636031
H          1.8618502845        -1.0754490322        -1.6525431608
H          1.6730791907         0.8738584243        -1.8233529220
H          3.2129278385         0.2200156965        -1.0327735182
          10
ANG Step:         23 Time:      475.4191162535
N         -0.0214119688        -0.0319631816        -0.0495744558
N          1.2232095744         0.0236250912        -0.0379977495
C         -0.7622430691         0.0327720872        -1.2212687844
C          2.0423656102        -0.0297092032        -1.2770980509
H         -1.7419112776         0.0437033811        -0.9724020176
H         -0.6481133015         0.8184583115        -1.8235059907
H         -0.4833687264        -0.8276199275        -1.9261824608
H          1.8702236606        -1.0251917419        -1.6612545283
H          1.6704824830         0.8548574423        -1.8354986040
H          3.1929496872         0.2126984377        -1.0332516439
          10
ANG Step:         24 Time:      496.0895126123
N         -0.0202612477        -0.0334861835        -0.0510730058
N          1.2225022608         0.0249776703        -0.0383995924
C         -0.7658298760         0.0350534809        -1.2177683606
C          2.0480228239        -0.0319460641        -1.2738993875
H         -1.7647950592         0.0625374591        -0.9512434932
H         -0.6526190733         0.8298720561        -1.8387306986
H         -0.4674048577        -0.8750223224        -1.9597567069
H          1.8797924063        -0.9740842998        -1.6720534617
H          1.6690713152         0.8326646740        -1.8487310956
H          3.1653960484         0.2027772517        -1.0349445654
          10
ANG Step:         25 Time:      516.7599089712
N         -0.0190194829        -0.0350044922        -0.0523817405
N          1.2221016683         0.0263812612        -0.0388314831
C         -0.7693919814         0.0364715631        -1.2146773410
C          2.0540081061        -0.0335168286        -1.2702194845
H         -1.7925601390         0.0795563235        -0.9296238442
H         -0.6545417354         0.8486434315        -1.8571801092
H         -0.4545661925        -0.9182443280        -1.9886168007
H          1.8898643434        -0.9264456800        -1.6861276609
H          1.6688670152         0.8079833613        -1.8628410598
H          3.1318286837         0.1906648460        -1.0375105195
          10
ANG Step:         26 Time:      537.4303053300
N         -0.0177071903        -0.0365174057        -0.0535315853
N          1.2220177034         0.0278258945        -0.0393002145
C         -0.7730829600         0.0371467261        -1.2121199128
C          2.0601905814        -0.0341452041        -1.2659812464
H         -1.8222494611         0.0945401398        -0.9084989365
H         -0.6542361673         0.8720432284        -1.8770314476
H         -0.4454559641        -0.9557918013        -2.0117577669
H          1.8996365256        -0.8868963440        -1.7049738185
H          1.6698353116         0.7816906499        -1.8776488983
H          3.0946201820         0.1769649456        -1.0404195129
          10
ANG Step:         27 Time:      558.1007016889
N         -0.0163449737        -0.0380252146        -0.0545557168
N          1.2222568616         0.0293007359        -0.0398151966
C         -0.7770432609         0.0372453553        -1.2101875767
C          2.0663473478        -0.0336534167        -1.2611336268
H         -1.8511865651         0.1073000133        -0.8887723295
H         -0.6521307292         0.8973506171        -1.8964166081
H         -0.4404244982        -0.9867373805        -2.0286336929
H          1.9084115006        -0.8592434517        -1.7299495372
H          1.6718970873         0.7548004376        -1.8930038094
H          3.0571717220         0.1625098995        -1.0429018083
          10
ANG Step:         28 Time:      578.7710980477
N         -0.0149528809        -0.0395286873        -0.0554872632
N          1.2228224646         0.0307954754        -0.0403875932
C         -0.7813803126         0.0369289363        -1.2089404847
C          2.0721342108        -0.0320613596        -1.2557157827
H         -1.8771939488         0.1176906803        -0.8712171224
H         -0.6486641046         0.9222054720        -1.9137060577
H         -0.4396675117        -1.0104893634        -2.0389638455
H          1.9158623483        -0.8452431321        -1.7615506210
H          1.6749451632         0.7284008019        -1.9087766085
H          3.0239840964         0.1483494591        -1.0439300864
          10
ANG Step:         29 Time:      599.4414944066
N         -0.0135496940        -0.0410287526        -0.0563572437
N          1.2237145901         0.0323014926        -0.0410293542
C         -0.7861636705         0.0363301772        -1.2084113907
C          2.0771058417        -0.0296113835        -1.2498979237
H         -1.8986388741         0.1256167518        -0.8564474537
H         -0.6442503106         0.9447405454        -1.9276272588
H         -0.4432894624        -1.0266523451        -2.0426190335
H          1.9221591737        -0.8441081613        -1.7988712403
H          1.6788659807         0.7035666083        -1.9248438943
H          3.0002770179         0.1356269435        -1.0423074948
          10
ANG Step:         30 Time:      620.1118907654
N         -0.0121520792        -0.0425263581        -0.0571928115
N          1.2249296238         0.0338123940        -0.0417525487
C         -0.7914278965         0.0355466437        -1.2086118130
C          2.0808215990        -0.0266828282        -1.2439522058
H         -1.9143922471         0.1310331413        -0.8449194741
H         -0.6392640209         0.9635750524        -1.9372713316
H         -0.4513401200        -1.0349483302        -2.0395595064
H          1.9278452649        -0.8531645526        -1.8397203635
H          1.6835617454         0.6812624297        -1.9410645762
H          2.9908402939         0.1253086989        -1.0369360002
          10
ANG Step:         31 Time:      640.7822871243
N         -0.0107736364        -0.0440224560        -0.0580158894
N          1.2264594698         0.0353238988        -0.0425689515
C         -0.7971779542         0.0346431949        -1.2095383051
C          2.0830129436        -0.0236562737        -1.2381652247
H         -1.9237636641         0.1339431623        -0.8369432078
H         -0.6340372733         0.9777494475        -1.9420491969
H         -0.4638315609        -1.0351786495        -2.0298067144
H          1.9335736885        -0.8690658735        -1.8812907661
H          1.6889670529         0.6622615464        -1.9572545768
H          2.9982979690         0.1178645253        -1.0272248952
          10
ANG Step:         32 Time:      661.4526834831
N         -0.0094239631        -0.0455180842        -0.0588422920
N          1.2282907824         0.0368333725        -0.0434897035
C         -0.8033942436         0.0336579128        -1.2111770828
C          2.0837062416        -0.0208182762        -1.2327559582
H         -1.9264477127         0.1343974106        -0.8326929775
H         -0.6288608635         0.9866517153        -1.9416381800
H         -0.4807402860        -1.0272180384        -2.0134408473
H          1.9398939032        -0.8887381979        -1.9208610094
H          1.6950580736         0.6470993026        -1.9731655140
H          3.0218577699         0.1131308728        -1.0133944324
          10
ANG Step:         33 Time:      682.1230798420
N         -0.0081078736        -0.0470145343        -0.0596814077
N          1.2304047352         0.0383393439        -0.0445250194
C         -0.8100360576         0.0326092524        -1.2135059232
C          2.0832017386        -0.0183412956        -1.2278488527
H         -1.9224973878         0.1324953448        -0.8322094876
H         -0.6239860473         0.9899597253        -1.9359396961
H         -0.5019964559        -1.0110411418        -1.9906230523
H          1.9471654782        -0.9097740357        -1.9561934477
H          1.7018565471         0.6360625512        -1.9884706178
H          3.0576416057         0.1104828078        -0.9964162252
          10
ANG Step:         34 Time:      702.7934762008
N         -0.0068249597        -0.0485136043        -0.0605364703
N          1.2327774171         0.0398411685        -0.0456838634
C         -0.8170432879         0.0315042355        -1.2164925480
C          2.0819369246        -0.0163111051        -1.2234968514
H         -1.9123300959         0.1283904909        -0.8353900281
H         -0.6196236964         0.9876090120        -1.9250557790
H         -0.5274595555        -0.9867900369        -1.9616469924
H          1.9555645671        -0.9304414438        -1.9856321128
H          1.7094282595         0.6292082605        -2.0027628937
H          3.1002970391         0.1091560581        -0.9776447158
          10
ANG Step:         35 Time:      723.4638725597
N         -0.0055696690        -0.0500179306        -0.0614054060
N          1.2353804949         0.0413388360        -0.0469734322
C         -0.8243369520         0.0303490832        -1.2200885295
C          2.0803473521        -0.0147618355        -1.2197181050
H         -1.8967653536         0.1222992539        -0.8419657769
H         -0.6159388649         0.9797879518        -1.9092855711
H         -0.5568773442        -0.9549012807        -1.9270304863
H          1.9651256175        -0.9495409877        -2.0080394868
H          1.7178728903         0.6264026484        -2.0155714249
H          3.1446123211         0.1084858323        -0.9584295235
          10
ANG Step:         36 Time:      744.1342689185
N         -0.0043320134        -0.0515313897        -0.0622822276
N          1.2381818445         0.0428328627        -0.0483984199
C         -0.8318197880         0.0291651174        -1.2242172347
C          2.0787921220        -0.0137005215        -1.2165213494
H         -1.8770859992         0.1145120955        -0.8514683377
H         -0.6130391033         0.9669587140        -1.8891396905
H         -0.5898235891        -0.9163229602        -1.8876643310
H          1.9757841439        -0.9662460134        -2.0226849413
H          1.7273055388         0.6273707216        -2.0263953731
H          3.1863747184         0.1079924989        -0.9398955000
          10
ANG Step:         37 Time:      764.8046652774
N         -0.0030989261        -0.0530595493        -0.0631589435
N          1.2411461380         0.0443242271        -0.0499602216
C         -0.8393788697         0.0280138574        -1.2287538794
C          2.0775384727        -0.0131208571        -1.2139162103
H         -1.8551017121         0.1054038259        -0.8631936127
H         -0.6109553045         0.9498993443        -1.8653680681
H         -0.6256134436        -0.8728604692        -1.8450371994
H          1.9874094672        -0.9799755661        -2.0291405263
H          1.7378349210         0.6317461138        -2.0347478295
H          3.2225446734         0.1073701894        -0.9228858277
          10
ANG Step:         38 Time:      785.4750616362
N         -0.0018561639        -0.0546100938        -0.0640278475
N          1.2442354664         0.0458143374        -0.0516562771
C         -0.8468925662         0.0270340276        -1.2334970831
C          2.0767754356        -0.0130103147        -1.2119139782
H         -1.8331716815         0.0954370368        -0.8761809661
H         -0.6096150754         0.9297575323        -1.8389934053
H         -0.6632115314        -0.8276686403        -1.8015346476
H          1.9998270154        -0.9903085152        -2.0272035306
H          1.7495439476         0.6391138052        -2.0401994341
H          3.2510950845         0.1064436158        -0.9079909696
          10
ANG Step:         39 Time:      806.1454579951
N         -0.0005905167        -0.0561930507        -0.0648838818
N          1.2474100120         0.0473050422        -0.0534797149
C         -0.8542425977         0.0264832789        -1.2381385798
C          2.0766344081        -0.0133534759        -1.2105241847
H         -1.8141165859         0.0851506436        -0.8892376924
H         -0.6088115699         0.9080988956        -1.8113366936
H         -0.7011911312        -0.7857817172        -1.7607200100
H          2.0128325204        -0.9969350665        -2.0168496464
H          1.7624760038         0.6490422043        -2.0424142967
H          3.2707707767         0.1051265345        -0.8956022298
          10
ANG Step:         40 Time:      826.8158543539
N          0.0007081277        -0.0578205558        -0.0657264273
N          1.2506287243         0.0487987058        -0.0554193772
C         -0.8613266596         0.0267476403        -1.2422573463
C          2.0772066483        -0.0141327623        -1.2097498095
H         -1.8009403673         0.0751275774        -0.9010434599
H         -0.6081764819         0.8869213665        -1.7840127178
H         -0.7378730068        -0.7542103081        -1.7272803981
H          2.0262004478        -0.9996410932        -1.9982156440
H          1.7766276282         0.6611042574        -2.0411748483
H          3.2808822948         0.1033917043        -0.8859600524
          10
ANG Step:         41 Time:      847.4862507128
N          0.0020455744        -0.0595059511        -0.0665596855
N          1.2538499037         0.0502983768        -0.0574601928
C         -0.8680625687         0.0282392039        -1.2453884027
C          2.0785548574        -0.0153268278        -1.2095821030
H         -1.7963312754         0.0659445698        -0.9103492124
H         -0.6071748310         0.8685919539        -1.7588641420