10
ANG Step:        194 Time:     4010.0568936165
N     0.08707139    -0.23291167    -0.68262763
N     1.14751932     0.33694856    -0.91857657
C    -1.28861636     0.12026834    -0.61146582
C     2.52725564    -0.21404139    -0.62727133
H    -1.67803870    -0.81796563    -0.41041796
H    -1.46504689     1.03265153     0.14590979
H    -1.77191859     0.53423183    -1.49387995
H     2.56931920    -1.25090515    -0.11254439
H     3.14466342    -0.19612388    -1.41895080
H     3.10058876     0.36679045     0.07173739
