10
ANG Step:        138 Time:     2852.5146975210
N     0.12573994    -0.41312004    -0.65421941
N     1.14059596     0.38882316    -0.61272316
C    -1.26219240     0.09716073    -0.76773444
C     2.46290480    -0.06118916    -0.72492479
H    -1.80760245    -0.67643956    -1.12991756
H    -1.71219949     0.58879362     0.13827756
H    -1.02420274     0.72842028    -1.61121700
H     2.58606117    -1.20473691    -1.19051000
H     3.08985148     0.52045459    -1.28327161
H     2.77634401    -0.04941637     0.23603348
