10
ANG Step:        180 Time:     3720.6713445926
N     0.05178111     0.34024232    -0.62416556
N     1.25020931    -0.33060366    -0.56693715
C    -1.32857887    -0.16052225    -0.74103202
C     2.52355108     0.11571744    -0.81600794
H    -1.79482494     0.84830013    -0.54660263
H    -1.66572107    -0.73298292    -1.72414529
H    -1.77186477    -0.69036307     0.17584602
H     2.68649063     0.39647347    -1.94746644
H     2.63371950     1.21802834    -0.35144764
H     3.39422991    -0.64290420    -0.73375507
