10
ANG Step:         88 Time:     1818.9948795786
N     0.02019746    -0.30033577    -0.10382945
N     1.18552643     0.29931758    -0.21025300
C    -0.98388024     0.10509229    -1.14202267
C     2.28231825    -0.09782228    -1.17550524
H    -2.06357380     0.07187886    -0.65442732
H    -0.99831920     1.24448718    -1.51187518
H    -0.75277549    -0.62589699    -1.93642053
H     2.02178595    -1.16487725    -1.52419882
H     2.21955298     0.39308674    -2.10228621
H     3.16150777     0.00649403    -0.52826299
