10
ANG Step:        306 Time:     6325.1412858074
N     0.10626677     0.03379746    -1.19508700
N     1.30063383     0.31778956    -1.43934482
C    -0.82571785    -0.11576215    -0.16790110
C     1.94189758    -0.16653291    -0.18332896
H    -0.38982477    -0.58019444     0.80210612
H    -1.45609346     0.61696352     0.12916510
H    -1.57266117    -0.84941084    -0.47886600
H     1.80942161    -1.20304146    -0.13499415
H     2.93691534     0.09739087    -0.46626462
H     1.63599362     0.39312886     0.71836863
