10
ANG Step:        506 Time:    10459.2205575770
N     0.03552331     0.19542310    -1.11950893
N     1.26937918     0.49643709    -0.90355882
C    -1.15654768    -0.20604138    -0.32477380
C     2.36411912    -0.37042597    -0.56091663
H    -1.37073422     0.65263499     0.55847465
H    -2.03834967    -0.34538016    -1.04827278
H    -1.12264095    -1.25190111     0.18539215
H     2.83497200     0.10456838     0.28018915
H     1.88956685    -1.36983242    -0.21505693
H     3.09473696    -0.54063608    -1.32402580
