10
ANG Step:        338 Time:     6986.5939692906
N     0.06267302    -0.09769964    -1.27697800
N     1.21065109     0.45388322    -0.98534781
C    -1.11119348    -0.16336556    -0.37362099
C     2.36418353    -0.19640027    -0.26318076
H    -0.73458662     0.18017587     0.56539915
H    -1.84406807     0.74055266    -0.74527573
H    -1.65741717    -1.00361854    -0.34978214
H     3.07234481     0.10292537    -1.08296425
H     2.23689979     0.45490627     0.76626650
H     2.11560124    -1.14276003    -0.35520568
