10
ANG Step:        576 Time:    11906.1483026964
N     0.06064642    -0.03811891    -1.14551183
N     1.19151799     0.43180362    -0.60135357
C    -1.15004347    -0.06072479    -0.37376655
C     2.40842029    -0.29619171    -0.71189301
H    -1.16092227     0.75737511     0.33504941
H    -1.94591559     0.20152729    -1.21236727
H    -1.58465722    -0.94851296     0.01420832
H     3.06794919     0.53642158    -0.38700538
H     2.34650085    -1.12007465    -0.08468226
H     2.69185126    -0.64835161    -1.68542375
