10
ANG Step:         90 Time:     1860.3356722963
N     0.17152335    -0.33779472    -0.48685798
N     1.13362769     0.36166144    -0.39779407
C    -1.19334113     0.10803443    -0.92938538
C     2.39666220    -0.12330772    -0.90374798
H    -1.68468892     0.11897436     0.05277322
H    -1.35314367     1.02495778    -1.38441716
H    -1.81563709    -0.47173412    -1.60330785
H     2.31087930    -0.84739193    -1.70402059
H     2.87647443     0.70531755    -1.31700393
H     3.00496300    -0.68270088    -0.14308290
