10
ANG Step:        530 Time:    10955.3100701894
N     0.12704604    -0.05407044    -1.17103882
N     1.18905587     0.64404152    -0.74256744
C    -1.08825522    -0.15240974    -0.34332319
C     2.27478545    -0.36896792    -0.61349711
H    -1.04119184     0.80395519     0.43102198
H    -2.01775296     0.08596440    -1.05217370
H    -1.19060188    -1.06341156     0.17070198
H     3.04718986     0.04300923     0.05069825
H     1.87646990    -1.37178755    -0.30406012
H     2.70816608    -0.48849160    -1.53354468
