10
ANG Step:        220 Time:     4547.4871989465
N     0.03969884    -0.22352602    -1.25709720
N     1.17873798     0.33993624    -0.95351159
C    -1.08446936     0.05222497    -0.35562697
C     2.33939521    -0.17389815    -0.34477634
H    -0.52616580     0.14425794     0.55790431
H    -1.49395287     0.99618234    -0.60860567
H    -1.93587273    -0.77758852    -0.40945848
H     2.42003197     0.61942767     0.43869490
H     2.25372449    -1.05243530    -0.11366719
H     3.21088044    -0.10102181    -1.02730720
