10
ANG Step:          6 Time:      124.0223781531
N    -0.01865113    -0.01109848     0.00198838
N     1.25556170     0.01191011    -0.03346805
C    -0.74977147     0.04039090    -1.25746621
C     1.98631846    -0.02132920    -1.27499987
H    -1.82792930    -0.19183457    -1.13828728
H    -0.51071533     1.02768700    -1.70883474
H    -0.40246701    -1.04300976    -2.07212071
H     1.92462600    -0.87539596    -1.68911165
H     1.70232406     0.77370444    -1.95437781
H     3.00555036     0.06810915    -1.06264005
