10
ANG Step:        242 Time:     5002.2359188412
N    -0.05204501     0.04690723    -1.40973611
N     1.17064304     0.35104351    -1.02969270
C    -1.01382516    -0.04844213    -0.25733693
C     2.37355036    -0.30609224    -0.25610908
H    -0.83117500    -0.95778112     0.41622171
H    -0.97077750     0.90893894     0.16977297
H    -1.97761747    -0.14466686    -0.61349720
H     2.12406672    -0.59011157     0.78161777
H     2.54174952    -1.06637470    -0.95569108
H     3.18161160     0.54003493    -0.00631836
