10
ANG Step:         52 Time:     1074.8606106601
N    -0.00336829    -0.17351238    -0.10587641
N     1.29329024     0.12033031    -0.06023815
C    -1.00933797     0.07450347    -1.21524930
C     2.20782223    -0.00640692    -1.20172263
H    -2.03307219     0.10334080    -0.79708178
H    -0.78745727     0.98970932    -1.75128017
H    -0.95832349    -0.68789371    -2.00951610
H     1.95080417    -1.06561066    -1.69868140
H     2.16829233     0.60119229    -1.99279948
H     3.26801564    -0.01493680    -0.88045029
