10
ANG Step:        438 Time:     9053.6336051754
N     0.10582600    -0.27969625    -0.19673756
N     1.30532592     0.21146737    -0.00196925
C    -0.79522927     0.08858534    -1.20401317
C     1.89964212    -0.02794653    -1.20619048
H    -1.68196751     0.12030810    -0.71596766
H    -0.62226327     1.10463945    -1.51732266
H    -0.95521867    -0.67799127    -2.16054676
H     1.55560157    -1.03148614    -1.46522925
H     1.73450063     0.75980383    -1.94958170
H     3.01307001    -0.05379913    -0.95478336
