10
ANG Step:         68 Time:     1405.5869524017
N     0.03481473    -0.05247964    -0.13389282
N     1.28841629     0.02441375    -0.11210311
C    -1.01345684     0.02128056    -1.17777859
C     2.20268998     0.00903829    -1.19193835
H    -1.98738721     0.18136807    -0.73024895
H    -0.98083709     0.88645389    -1.76826636
H    -1.18754492    -0.93889977    -1.89518603
H     1.94860501    -0.82106482    -1.64812720
H     2.21933547     0.85034612    -1.80323251
H     3.24266634    -0.13156350    -0.73777466
