10
ANG Step:        396 Time:     8185.4769581037
N     0.02638124     0.09935807    -1.20578307
N     1.13178476    -0.47306722    -1.16801394
C    -0.89570504     0.15804312    -0.24847326
C     2.22595673     0.11933655    -0.34681955
H    -1.71228990    -0.47168658    -0.40964245
H    -0.47831739    -0.05305981     0.76750802
H    -1.33228129     1.08971856    -0.25661946
H     1.88831430     1.27376673    -0.17837005
H     2.32356236    -0.25486624     0.70695025
H     3.18038060     0.30225423    -0.77629293
