10
ANG Step:        228 Time:     4712.8503698173
N     0.06290359    -0.33188180    -1.16415112
N     1.12042276     0.26331942    -0.84242677
C    -1.10337052     0.12010751    -0.43276039
C     2.38082894    -0.09950718    -0.48692066
H    -0.88728168     0.58339761     0.50727210
H    -1.36863468     0.96828603    -1.02262073
H    -1.94833651    -0.57260121    -0.02899484
H     2.31810370    -0.94529941     0.18685593
H     3.05110974     0.01963292    -1.24482160
H     2.98184327     0.65170726     0.21546355
