10
ANG Step:        560 Time:    11575.4219609548
N     0.02728784    -0.38407828    -0.30215198
N     1.14316088     0.14687951    -0.13241330
C    -1.02874234     0.19299323    -1.16141474
C     2.32786798     0.00323326    -1.02062511
H    -1.71800703     0.88343318    -0.73044066
H    -0.39174388     0.74263065    -1.89645577
H    -1.56852826    -0.47659471    -1.80769382
H     3.21149192    -0.09114788    -0.54189730
H     2.27153014    -0.95143470    -1.50172933
H     2.26352897     0.84971267    -1.72076558
