10
ANG Step:        116 Time:     2397.7659776263
N     0.15817820    -0.35136017    -0.56896166
N     1.13047692     0.35367019    -0.33300103
C    -1.16164473     0.11307343    -0.91180097
C     2.36544899    -0.08776981    -0.92669660
H    -1.74759486     0.05424398     0.07561394
H    -0.99974215     1.09784972    -1.06479851
H    -1.62371261    -0.48691125    -1.74969246
H     2.07030998    -1.18751403    -1.22988741
H     2.71121219     0.48249458    -1.71418160
H     3.15225786    -0.29561177    -0.11050297
