10
ANG Step:        472 Time:     9756.4270813762
N     0.04038171     0.25966602    -1.20139600
N     1.09820380    -0.29975388    -0.69452947
C    -1.12932755     0.02013249    -0.40863102
C     2.47588995     0.01125382    -0.60114695
H    -1.50070562    -0.99783203    -0.05612809
H    -1.14885827     0.64054411     0.60195409
H    -2.03497496     0.42614369    -0.84951477
H     2.88456995     0.99389701    -0.60864268
H     2.81758673    -0.19516229     0.43216787
H     2.92950956    -0.68812451    -1.37092169
