10
ANG Step:        590 Time:    12195.5338517202
N     0.02778692    -0.43864673    -0.32245764
N     1.20480705     0.00612951    -0.26131464
C    -1.09683900     0.21357144    -1.03673022
C     2.34549908     0.14959183    -1.01115111
H    -1.90704695     0.26877550    -0.34721201
H    -0.86701324     1.07071981    -1.54931705
H    -1.33703347    -0.55725354    -1.81063500
H     3.01684726    -0.80330746    -1.00029302
H     2.04415721     0.47044058    -2.09094337
H     2.85924566     1.23582184    -0.92282462
