10
ANG Step:        566 Time:    11699.4443391079
N     0.14770267     0.39614842    -0.45763924
N     1.15750438    -0.33882096    -0.31944690
C    -1.27702889     0.02171200    -0.85619468
C     2.45862342    -0.06730874    -1.04156258
H    -1.68095928    -0.56581915    -0.09481945
H    -1.83284469     0.84661910    -0.90099845
H    -1.38936093    -0.64697097    -1.74930933
H     2.43373543     0.84402156    -1.62125374
H     3.43043295     0.10684104    -0.71525546
H     2.63515810    -0.84238481    -1.74211012
