10
ANG Step:        234 Time:     4836.8727479704
N    -0.03865694    -0.36693116    -0.96851369
N     1.12671718     0.13710585    -0.64520057
C    -1.20061448     0.18134536    -0.50803788
C     2.60325165    -0.01551240    -0.72013927
H    -1.20079166     0.98547793     0.29131747
H    -1.65433553     0.73780776    -1.30799564
H    -2.01948289    -0.53435410    -0.13220739
H     2.86083543    -0.83410454    -0.14722771
H     3.01633762    -0.07391944    -1.70081754
H     2.97749087     0.93581598    -0.17510016
