10
ANG Step:        432 Time:     8929.6112270223
N     0.03393751     0.28404658    -1.27664299
N     1.17752854     0.53376341    -0.91493098
C    -0.97233019    -0.23327931    -0.24629234
C     2.20173261    -0.44046558    -0.46872947
H    -1.36467827     0.43309237     0.37200469
H    -1.59214333    -0.81885243    -0.92448002
H    -0.19477212    -0.74266873     0.31093774
H     2.46671650    -0.40831019     0.60414417
H     1.94389389    -1.45064218    -0.50748525
H     3.06744323    -0.35502704    -1.10897607
