10
ANG Step:        330 Time:     6821.2307984198
N     0.09641805    -0.57925523    -1.17319366
N     1.14444007     0.11422526    -1.05953362
C    -1.18191283     0.02541332    -0.40921355
C     2.41413278     0.39265084    -0.25262793
H    -1.02292706     1.02006337     0.08825445
H    -1.87198152     0.06090926    -1.14602726
H    -1.59047399    -0.74586815     0.36191121
H     2.86247991    -0.57679605     0.14552417
H     3.08331038     0.66596852    -1.22743553
H     2.42542734     1.05729016     0.46313991
