10
ANG Step:        324 Time:     6697.2084202667
N     0.08798447    -0.05714828    -1.31940054
N     1.17064924     0.40298372    -1.07024104
C    -1.06538482    -0.10410573    -0.34709392
C     2.26622484    -0.16016890    -0.25925040
H    -0.58619877    -0.04019222     0.65380861
H    -1.84883545     0.56589117    -0.36163618
H    -1.46314774    -1.21266582    -0.22300687
H     3.47808094     0.14480684    -0.44755217
H     2.15616907     0.19087234     0.89039862
H     2.27779641    -1.30973857    -0.30720763
