10
ANG Step:        228 Time:     4712.8503698173
N     0.14559610    -0.34520096    -0.85891271
N     1.19866359     0.37341434    -1.13429147
C    -1.17742545     0.11845628    -0.40563866
C     2.31748208    -0.15561332    -0.46421689
H    -1.86988387    -0.69645495    -0.68137650
H    -1.03162707     0.76643268     0.38557196
H    -1.66651932     0.94716003    -1.03932209
H     1.98850994    -1.04438370     0.09061594
H     3.20162082    -0.41311230    -1.16753797
H     2.92764216     0.48846313     0.24846423
