10
ANG Step:        118 Time:     2439.1067703440
N     0.05279504    -0.39190730    -0.78821873
N     1.18496787     0.40966465    -0.63916000
C    -1.33756326     0.09421643    -0.66293910
C     2.58636152    -0.13031503    -0.69331024
H    -1.88314936     0.33674746     0.35183929
H    -1.29927239     1.21038096    -1.10170573
H    -1.76150758    -0.60584015    -1.31764578
H     2.57246127    -0.90784109    -1.53540926
H     3.33973806     0.72182039    -0.88283764
H     2.76540265    -0.57513109     0.24898123
