10
ANG Step:        328 Time:     6779.8900057021
N     0.14181821    -0.25349495    -1.07229871
N     1.20073682     0.46641601    -1.33222824
C    -0.99211416    -0.06105139    -0.25739979
C     2.16340606    -0.12013601    -0.25965196
H    -0.52071786     0.00635105     0.76742110
H    -1.45376654     0.95401152    -0.66644019
H    -1.74244748    -0.60850985    -0.56951668
H     1.69019636    -0.36606196     0.69041276
H     2.28545234    -1.31655980    -0.69918464
H     2.93892392     0.52763929    -0.17479403
