10
ANG Step:        474 Time:     9797.7678740939
N     0.07994049    -0.24027189    -0.08603770
N     1.26462162     0.18782785     0.09594191
C    -0.80803942     0.12075368    -1.22487645
C     1.95417542    -0.08782258    -1.34317815
H    -1.80885564    -0.15298477    -1.16355907
H    -0.71226861     1.18451370    -1.53868567
H    -0.57928466    -0.45947033    -1.99593519
H     2.01013248    -1.04007372    -1.71884109
H     1.49224838     0.58643480    -2.02952752
H     3.07018321     0.21347178    -1.33637788
