10
ANG Step:        378 Time:     7813.4098236445
N    -0.04095272    -0.64141603    -0.67449933
N     1.06484818    -0.25973308    -1.14389507
C    -0.85313105     0.50367732    -0.55787648
C     2.28033549     0.24068779    -0.49816653
H    -1.37351590     1.07672331    -1.28092296
H    -1.64753753     0.27333003     0.10205910
H    -0.08701081     1.06631332    -0.32799094
H     2.94790623     0.76766537    -1.18087844
H     2.07283479     1.08508139     0.36570289
H     2.67159017    -0.61401634    -0.05389761
