10
ANG Step:        198 Time:     4092.7384790519
N     0.08853737    -0.15307144    -1.23906123
N     1.08609657     0.29843553    -0.71952177
C    -1.06030343     0.09314431    -0.41932579
C     2.37892112    -0.22721462    -0.50858723
H    -1.19413608    -0.73466208     0.27799327
H    -1.06706769     1.12363701     0.00216179
H    -1.94889953     0.10284041    -1.08989863
H     2.41875065    -0.91710925     0.34892993
H     2.57290029    -0.62116389    -1.47781483
H     2.99732515     0.62092722    -0.01543827
