10
ANG Step:        216 Time:     4464.8056135111
N     0.10402585    -0.31675125    -0.79526009
N     1.20628580     0.39207534    -1.06661638
C    -1.20253540     0.13676858    -0.48767673
C     2.41444215    -0.19385892    -0.51330272
H    -1.88002991    -0.68864143    -0.41733899
H    -1.31217853     0.68109331     0.53589739
H    -1.55601692     0.64202809    -1.35795380
H     2.15652853    -1.18800867    -0.02963425
H     3.02547624    -0.36953160    -1.30492375
H     2.73209002     0.55392616     0.14685977
