10
ANG Step:        298 Time:     6159.7781149367
N     0.00558728    -0.06382555    -1.40223725
N     1.22220326     0.38564273    -1.12250061
C    -0.85442992    -0.11510382    -0.22759371
C     2.14614072    -0.18320033    -0.19138794
H    -0.44384724     0.01669964     0.74697599
H    -1.70572836     0.67787021    -0.48122469
H    -1.33535031    -1.01287527    -0.43190987
H     3.05322515     0.69166980    -0.29844821
H     1.39433781    -0.13221352     0.84936861
H     2.39785586    -1.16325899    -0.53368848
