10
ANG Step:        384 Time:     7937.4322017976
N     0.04034245    -0.46081517    -1.21522129
N     1.09337589     0.30319400    -1.12225440
C    -0.90893277     0.10839108    -0.27194830
C     2.25751670     0.00929816    -0.30782520
H    -1.77825316     0.55204153    -0.80499633
H    -1.36721780    -0.62042833     0.30511653
H    -0.52945422     0.85100813     0.25332419
H     1.96562126    -0.02069896     0.76555915
H     2.81858169    -0.80277593    -0.71694252
H     2.88358090     0.82739287    -0.63531775
