10
ANG Step:         20 Time:      413.4079271770
N     0.02211287    -0.05882469    -0.08158719
N     1.26691536     0.03830542    -0.00500137
C    -0.74103105    -0.00839766    -1.26830213
C     1.95019131     0.01561253    -1.24405882
H    -1.82089638     0.12978538    -1.00307260
H    -0.49440155     0.96337507    -1.82801687
H    -0.61558207    -1.04671001    -1.69127669
H     1.57964714    -0.73301513    -1.82959792
H     1.92706187     1.07506493    -1.92569389
H     2.91731416    -0.19169650    -0.82143227
