10
ANG Step:         98 Time:     2025.6988431671
N    -0.00069739    -0.08231683    -0.09798451
N     1.21437634     0.22658395    -0.29956568
C    -1.03858210     0.01711788    -1.07666442
C     2.30342620    -0.15518836    -1.14281148
H    -2.06767256    -0.13237827    -0.81410279
H    -1.01722957     0.83824714    -1.52909839
H    -0.81536809    -0.55071029    -1.99833848
H     1.96699039    -0.99676424    -1.81603021
H     2.60397309     0.77158389    -1.73055097
H     3.20745297    -0.29304807    -0.37745968
