10
ANG Step:        474 Time:     9797.7678740939
N     0.15771176    -0.10104210    -1.04098771
N     1.15531908     0.28560817    -0.29132635
C    -1.25387949     0.12083608    -0.70831230
C     2.45328605    -0.25411989    -0.76102319
H    -1.39884093    -0.37838425     0.34098340
H    -1.66016122     1.12958983    -0.60501586
H    -1.72310809    -0.54153642    -1.46293487
H     3.07869609     0.37284621    -0.34508543
H     2.82660039    -1.28631109    -0.33559881
H     2.15131480    -0.27534738    -1.80063662
