10
ANG Step:        458 Time:     9467.0415323523
N     0.08503618    -0.34344813    -0.66478091
N     1.17493532     0.31857206    -0.99388075
C    -1.28588476     0.03524540    -0.57858800
C     2.52661386    -0.00281628    -0.61376397
H    -1.59838025     0.93061447    -1.03127619
H    -1.81919301    -0.81508935    -1.10587630
H    -1.56105293     0.12537006     0.66800286
H     2.84760340     0.32623613     0.43331733
H     2.43553388    -1.05172291    -0.66703727
H     3.21867322     0.44195487    -1.26779446
