10
ANG Step:        294 Time:     6077.0965295013
N     0.10298552    -0.36221794    -0.63831244
N     1.10040095     0.06131000    -1.27456629
C    -1.16614586     0.34013095    -0.48308510
C     2.44695242    -0.05929165    -0.44158975
H    -1.81269846    -0.36936328    -1.09903345
H    -1.60198044     0.24672996     0.40055241
H    -1.20124479     1.17332615    -0.99249264
H     3.26728831    -0.39442852    -1.15897635
H     2.91077246     0.94033119    -0.07681062
H     2.27063369    -0.76227629     0.29923037
