10
ANG Step:        308 Time:     6366.4820785251
N     0.10494585     0.03903329    -1.19844613
N     1.30208788     0.31189545    -1.43016379
C    -0.82148867    -0.12605376    -0.16711258
C     1.92979040    -0.16093286    -0.18825359
H    -0.42748196    -0.56248672     0.80075799
H    -1.48347564     0.65339502     0.15786209
H    -1.55266138    -0.82289314    -0.48919075
H     1.84984445    -1.17308435    -0.13759478
H     3.03917839     0.07028115    -0.48717997
H     1.63030649     0.37464036     0.69321771
