10
ANG Step:        570 Time:    11782.1259245433
N     0.03200548    -0.40142631    -0.55284499
N     1.12668038     0.19246021    -0.36881809
C    -1.11449947     0.22047390    -0.87420831
C     2.41742029    -0.06774879    -0.89045880
H    -2.01483700     0.03817736    -0.45449088
H    -1.00805978     1.38916335    -0.69534681
H    -1.33060958     0.08789136    -1.89125304
H     3.23762674     0.80239997    -0.83751807
H     2.89545337    -0.86913833    -0.43568530
H     2.40662379    -0.36506961    -2.08299743
