10
ANG Step:        526 Time:    10872.6284847540
N     0.15713215    -0.32705003    -0.73176108
N     1.17841057     0.33656021    -0.28030555
C    -1.15242625     0.06760466    -0.82420791
C     2.33582523    -0.04070784    -0.86190274
H    -1.76722017    -0.29416782    -0.09114354
H    -1.49022335     1.09381999    -0.83661335
H    -1.45199987    -0.51615735    -1.76253247
H     2.57291053    -1.18249768    -0.86262422
H     1.93507511    -0.01952234    -2.00540713
H     3.35704715     0.46565682    -0.51959807
