10
ANG Step:         12 Time:      248.0447563062
N    -0.06772890    -0.05180070    -0.01619026
N     1.27960036     0.04153391    -0.02365351
C    -0.77673029     0.00402677    -1.24836742
C     2.06073983    -0.00807331    -1.26272080
H    -1.72884547     0.18224674    -1.15211337
H    -0.43807332     0.87371618    -1.77909510
H    -0.73726356    -0.82168762    -1.88044481
H     1.80130189    -0.94507086    -1.85386524
H     1.66662068     0.74523000    -1.92799040
H     3.11048783     0.15393102    -1.17005795
