10
ANG Step:        544 Time:    11244.6956192132
N     0.18617152    -0.36401029    -0.64134149
N     1.11005303     0.30380247    -0.15993067
C    -1.15875143     0.06843330    -0.89175954
C     2.34789025    -0.05023168    -0.99092370
H    -1.74048999    -0.19225803    -0.09356532
H    -0.93002782     1.17801905    -1.11920700
H    -1.65445435    -0.30353583    -1.86332287
H     2.59192646    -1.06856166    -0.67637725
H     2.24226822     0.29468669    -2.09048625
H     3.12438413     0.71107012    -0.82324936
