10
ANG Step:        220 Time:     4547.4871989465
N     0.00882921    -0.27921685    -1.29552711
N     1.09294734     0.32192113    -0.83675675
C    -1.04094121     0.05955703    -0.38870350
C     2.43821260    -0.09799370    -0.41008519
H    -0.75707693    -0.13819679     0.69206817
H    -1.22137281     1.01975384    -0.54381392
H    -2.09946962    -0.29101396    -0.49874154
H     2.17851550    -1.22328185    -0.49874089
H     3.25274121     0.26720033    -0.91207043
H     2.50271693     0.22818613     0.68276600
