10
ANG Step:        286 Time:     5911.7333586305
N     0.05398897    -0.26532840    -1.23785399
N     1.20482144     0.13927222    -1.28836923
C    -0.98609711     0.15361182    -0.21771399
C     2.20289407    -0.01486845    -0.25870549
H    -1.94802189    -0.55192287    -0.20135362
H    -0.52210208    -0.41751149     0.71124063
H    -1.10069368     1.22223072    -0.10094109
H     1.83635732    -0.51304407     0.54943070
H     3.14339915    -0.62827351    -0.58921999
H     2.41458472     0.98572701     0.18895459
