10
ANG Step:        372 Time:     7689.3874454914
N     0.00178901    -0.02885019    -1.30484720
N     1.17211035     0.34763778    -1.17269288
C    -0.95979432    -0.11228791    -0.22611837
C     2.23594470    -0.16780915    -0.24110834
H    -0.59224762    -0.78968818     0.55644925
H    -1.14231507     0.93550746     0.01450437
H    -1.73355425    -0.53556269    -0.74746070
H     2.18566435    -1.17729867    -0.00714753
H     3.29091349     0.13357695    -0.69616565
H     2.28816862     0.33811360     0.65060333
