10
ANG Step:        232 Time:     4795.5319552527
N     0.18326416    -0.38641144    -0.97100012
N     1.21294566     0.10461073    -1.43497484
C    -0.98436920     0.11760301    -0.35552625
C     2.10587511     0.11116258    -0.18081771
H    -1.98070396     0.45013392    -0.93331773
H    -1.19129389    -0.80695680     0.05267798
H    -0.61950618     1.05896695     0.14392052
H     2.50193387    -0.76842183    -0.16344804
H     2.86742105     0.99531908    -0.33313194
H     1.46836906     0.26046557     0.83184597
