10
ANG Step:         52 Time:     1074.8606106601
N    -0.11615433    -0.04869879     0.04408153
N     1.22273103     0.07338930    -0.15700786
C    -0.82633864     0.03360630    -1.16854251
C     2.19524352    -0.05686015    -1.28546395
H    -1.95780468     0.21118608    -1.16270924
H    -0.61365317     0.63708072    -1.87778795
H    -0.61115529    -0.91370107    -1.77574820
H     2.00230427    -0.88343193    -1.98003311
H     2.20107487     0.96905902    -1.91602803
H     3.10606847    -0.08889208    -0.71554445
