10
ANG Step:        576 Time:    11906.1483026964
N     0.14709348     0.03289921    -0.34039356
N     1.15178060     0.06739243    -1.10923608
C    -1.24777127     0.16309102    -0.64024545
C     2.44348883    -0.26352566    -0.67540136
H    -1.38090350     1.35822183    -0.67770515
H    -1.48012141    -0.04973945    -1.71884523
H    -1.97419036    -0.39420716    -0.26854154
H     3.06174993    -0.40441882    -1.64653998
H     2.80962328     0.63254425     0.15119469
H     2.48543107    -1.34292987    -0.24765576
