          10
ANG Step:          0 Time:        0.0000000000
N         -0.0572101312        -0.0640354535         0.0170109940
N          1.2655593625         0.0290878234        -0.0421885312
C         -0.7268307117         0.0218227654        -1.2426714057
C          1.9830615266         0.0141780121        -1.2741855966
H         -1.7113764496         0.2877123995        -1.1695505351
H         -0.4680878539         0.8028559396        -2.2251433934
H         -0.7405729093        -0.9409053720        -1.6386565683
H          2.0905704807        -0.8572251671        -1.9430721924
H          1.7699154030         0.8101736931        -1.8700318784
H          3.1134677018        -0.0481746262        -1.0523958342
          10
ANG Step:          1 Time:       20.6703963588
N         -0.0576625404        -0.0631100045         0.0205321671
N          1.2668227557         0.0295205709        -0.0465718391
C         -0.7234450200         0.0204625274        -1.2438389988
C          1.9829919633         0.0126910099        -1.2704034060
H         -1.6972179063         0.3017831157        -1.1717129040
H         -0.4892972618         0.7745867645        -2.2086924335
H         -0.7472013140        -0.9248426382        -1.6660087617
H          2.0764087425        -0.8651942086        -1.9487884900
H          1.7628018141         0.8285639704        -1.8863489678
H          3.0976781999        -0.0454305188        -1.0364489577
          10
ANG Step:          2 Time:       41.3407927177
N         -0.0575598384        -0.0620133955         0.0241219706
N          1.2674122072         0.0298098390        -0.0511642913
C         -0.7199239269         0.0195837370        -1.2457209548
C          1.9840052781         0.0108314726        -1.2666045812
H         -1.6900195568         0.3171473855        -1.1705120403
H         -0.5084942477         0.7420885151        -2.1843887649
H         -0.7531887598        -0.9134387057        -1.6955619343
H          2.0576813335        -0.8737046740        -1.9522163957
H          1.7553463175         0.8503157227        -1.9039719803
H          3.0782483127        -0.0395935423        -1.0202394267
          10
ANG Step:          3 Time:       62.0111890765
N         -0.0569159515        -0.0607627596         0.0277578456
N          1.2673068166         0.0299566562        -0.0559383686
C         -0.7163353138         0.0191389755        -1.2482594236
C          1.9859538348         0.0087767055        -1.2629946985
H         -1.6897892839         0.3334990743        -1.1658008402
H         -0.5247450523         0.7066887313        -2.1532841319
H         -0.7586180251        -0.9069169501        -1.7267189159
H          2.0347559772        -0.8821484569        -1.9529789328
H          1.7483097328         0.8729371130        -1.9211016766
H          3.0562564316        -0.0309007788        -1.0039459550
          10
ANG Step:          4 Time:       82.6815854354
N         -0.0557527747        -0.0593755464         0.0314124896
N          1.2664968682         0.0299656372        -0.0608647704
C         -0.7128256090         0.0190119900        -1.2513474946
C          1.9886559179         0.0066759475        -1.2597488463
H         -1.6956777302         0.3502560549        -1.1575926887
H         -0.5370098699         0.6702444710        -2.1170920751
H         -0.7635963539        -0.9049429243        -1.7586094505
H          2.0081072513        -0.8899744107        -1.9507981023
H          1.7423362438         0.8943514856        -1.9362681364
H          3.0331482334        -0.0196505168        -0.9876757762
          10
ANG Step:          5 Time:      103.3519817942
N         -0.0540992994        -0.0578691901         0.0350537336
N          1.2649832905         0.0298448271        -0.0659121329
C         -0.7096028640         0.0190080049        -1.2547987727
C          1.9919008551         0.0046435756        -1.2570070929
H         -1.7062106904         0.3666432248        -1.1460797407
H         -0.5441334897         0.6353182558        -2.0784614125
H         -0.7682298218        -0.9067700715        -1.7901655177
H          1.9783116229        -0.8967066802        -1.9455018093
H          1.7379266102         0.9129783607        -1.9483913842
H          3.0106987411        -0.0061843656        -0.9714484248
          10
ANG Step:          6 Time:      124.0223781531
N         -0.0519908798        -0.0562610594         0.0386450005
N          1.2627770074         0.0296053082        -0.0710467437
C         -0.7069117269         0.0188497804        -1.2583213182
C          1.9954601050         0.0027621238        -1.2548762593
H         -1.7195980404         0.3818206932        -1.1316341721
H         -0.5448499019         0.6052848949        -2.0411704995
H         -0.7726047615        -0.9114254692        -1.8202463532
H          1.9460365306        -0.9019636751        -1.9370300652
H          1.7354427365         0.9276969309        -1.9567515687
H          2.9908824396         0.0091347323        -0.9551983444
          10
ANG Step:          7 Time:      144.6927745119
N         -0.0494686234        -0.0545687132         0.0421468016
N          1.2598984552         0.0292606901        -0.0762324446
C         -0.7050071986         0.0181971076        -1.2615281618
C          1.9991080654         0.0010892321        -1.2534313706
H         -1.7340073180         0.3950053910        -1.1147876509
H         -0.5378331384         0.5841441390        -2.0099163269
H         -0.7767775955        -0.9178697327        -1.8477656566
H          1.9120226041        -0.9054779628        -1.9254418037
H          1.7351248713         0.9377681680        -1.9609271618
H          2.9756261133         0.0259416714        -0.9388137643
          10
ANG Step:          8 Time:      165.3631708708
N         -0.0465789810        -0.0528104197         0.0455193706
N          1.2563775522         0.0288266366        -0.0814308514
C         -0.7041247745         0.0167167529        -1.2640246023
C          2.0026512673        -0.0003344074        -1.2527131931
H         -1.7477521076         0.4055520982        -1.0961897057
H         -0.5218745201         0.5757239444        -1.9892577792
H         -0.7807724062        -0.9251045602        -1.8717835021
H          1.8770588365        -0.9071157810        -1.9109218686
H          1.7371105224         0.9427592712        -1.9607352339
H          2.9664695661         0.0438738865        -0.9222193227
          10
ANG Step:          9 Time:      186.0335672296
N         -0.0433736926        -0.0510057318         0.0487258243
N          1.2522542862         0.0283205306        -0.0866019332
C         -0.7044389039         0.0142045702        -1.2655683855
C          2.0059577819        -0.0014774171        -1.2527223559
H         -1.7594008268         0.4129881581        -1.0765523643
H         -0.4962759316         0.5822642713        -1.9817552120
H         -0.7845847741        -0.9322356492        -1.8915519679
H          1.8419518592        -0.9068931199        -1.8937856645
H          1.7414496850         0.9424900772        -1.9561887965
H          2.9642333327         0.0625531949        -0.9054828639
          10
ANG Step:         10 Time:      206.7039635885
N         -0.0399102784        -0.0491756931         0.0517345205
N          1.2475798936         0.0277613087        -0.0917049102
C         -0.7060162523         0.0106892948        -1.2661956432
C          2.0089748373        -0.0023119462        -1.2534140733
H         -1.7678288998         0.4170150735        -1.0565944910
H         -0.4613570441         0.6032173931        -1.9865396255
H         -0.7881889637        -0.9385065455        -1.9065257731
H          1.8074923134        -0.9049838534        -1.8744775445
H          1.7481137617         0.9370080059        -1.9474755894
H          2.9688341606         0.0815513400        -0.8888977159
          10
ANG Step:         11 Time:      227.3743599473
N         -0.0362530600        -0.0473423602         0.0545195098
N          1.2424182999         0.0271694188        -0.0966993591
C         -0.7087960986         0.0064219604        -1.2661866208
C          2.0117268320        -0.0028121111        -1.2546979417
H         -1.7722336258         0.4174952942        -1.0369986104
H         -0.4186717084         0.6353958159        -1.9997654770
H         -0.7915445280        -0.9433132408        -1.9163567309
H          1.7744227067        -0.9017149760        -1.8535591027
H          1.7569968200         0.9265925389        -1.9349581406
H          2.9793381759         0.1003620108        -0.8729916498
          10
ANG Step:         12 Time:      248.0447563062
N         -0.0324742668        -0.0455278091         0.0570593814
N          1.2368472319         0.0265668040        -0.1015463602
C         -0.7126181602         0.0017601842        -1.2659050361
C          2.0142962134        -0.0029586897        -1.2564439552
H         -1.7721318230         0.4144386092        -1.0183829204
H         -0.3706726155         0.6743571162        -2.0165317423
H         -0.7946008210        -0.9462107364        -1.9208872004
H          1.7434115217        -0.8975451145        -1.8316854106
H          1.7679090185         0.9117883226        -1.9191936362
H          2.9942190721         0.1184017134        -0.8584533841
          10
ANG Step:         13 Time:      268.7151526650
N         -0.0286545979        -0.0437531416         0.0593358761
N          1.2309584457         0.0259768074        -0.1062095656
C         -0.7172734412        -0.0029505157        -1.2656550771
C          2.0167975331        -0.0027500500        -1.2584918477
H         -1.7673598360         0.4079948359        -1.0012814835
H         -0.3200964437         0.7158228931        -2.0325767545
H         -0.7973010878        -0.9469247892        -1.9201493937
H          1.7150374670        -0.8930251029        -1.8095700525
H          1.7805638032         0.8934634048        -1.9009704346
H          3.0116949077         0.1350429739        -0.8460140454
          10
ANG Step:         14 Time:      289.3855490239
N         -0.0248829077        -0.0420378579         0.0613332948
N          1.2248568790         0.0254239317        -0.1106561886
C         -0.7225428561        -0.0074355160        -1.2656254469
C          2.0193547173        -0.0022167283        -1.2606598488
H         -1.7580853884         0.3984533572        -0.9861249461
H         -0.2694812758         0.7563930555        -2.0449432622
H         -0.7995876496        -0.9453742152        -1.9143699086
H          1.6897858995        -0.8887429961        -1.7879426019
H          1.7945633059         0.8728809595        -1.8813524316
H          3.0300186754         0.1496643875        -0.8363350465
          10
ANG Step:         15 Time:      310.0559453827
N         -0.0212549942        -0.0403996286         0.0630388365
N          1.2186588226         0.0249334205        -0.1148579647
C         -0.7282124202        -0.0114977661        -1.2658968263
C          2.0220858261        -0.0014349675        -1.2627513811
H         -1.7448306813         0.3862476489        -0.9732181215
H         -0.2209524797         0.7936465045        -2.0519043181
H         -0.8014077163        -0.9417002380        -1.9039757394
H          1.6680567672        -0.8852600658        -1.7675043562
H          1.8093908002         0.8517554536        -1.8617107187
H          3.0476635985         0.1616979487        -0.8299339504
          10
ANG Step:         16 Time:      330.7263417416
N         -0.0178716109        -0.0388543183         0.0644434661
N          1.2124893063         0.0245306556        -0.1187920536
C         -0.7340721181        -0.0150012020        -1.2664720401
C          2.0250939511        -0.0005326433        -1.2645620615
H         -1.7285002556         0.3719616507        -0.9627142983
H         -0.1762007168         0.8259655924        -2.0526341311
H         -0.8027183526        -0.9362956353        -1.8895972602
H          1.6501803680        -0.8830480436        -1.7488889229
H          1.8244248019         0.8322369053        -1.8437041678
H          3.0634077116         0.1706621241        -0.8271521479
          10
ANG Step:         17 Time:      351.3967381004
N         -0.0148358460        -0.0374161056         0.0655428590
N          1.2064788702         0.0242403899        -0.1224417497
C         -0.7399085968        -0.0178501921        -1.2673065265
C          2.0284603503         0.0003203396        -1.2658921815
H         -1.7104005395         0.3563318976        -0.9545895932
H         -0.1365452458         0.8523087930        -2.0468877510
H         -0.8034893406        -0.9298241474        -1.8720619070
H          1.6364348618        -0.8824394990        -1.7326330934
H          1.8389925449         0.8167420940        -1.8291556247
H          3.0763517836         0.1761788721        -0.8281519082
          10
ANG Step:         18 Time:      372.0671344593
N         -0.0122499890        -0.0360976143         0.0663381056
N          1.2007598305         0.0240858726        -0.1257968186
C         -0.7454992632        -0.0199727667        -1.2683323041
C          2.0322365516         0.0009429869        -1.2665692966
H         -1.6922269682         0.3402345556        -0.9486262607
H         -0.1030162721         0.8720199693        -2.0347673365
H         -0.8037032462        -0.9232162775        -1.8523691639
H          1.6270590642        -0.8836007402        -1.7191604426
H          1.8524717857         0.8075677863        -1.8197835642
H          3.0859063337         0.1779787076        -0.8329273410
          10
ANG Step:         19 Time:      392.7375308181
N         -0.0102119811        -0.0349100223         0.0668360252
N          1.1954621383         0.0240879659        -0.1288533573
C         -0.7506132553        -0.0213095236        -1.2694750310
C          2.0364352374         0.0011914124        -1.2664792858
H         -1.6759819371         0.3246422133        -0.9444212127
H         -0.0764269850         0.8846923869        -2.0165734769
H         -0.8033525693        -0.9176221269        -1.8316352120
H          1.6222562885        -0.8865299260        -1.7087765965
H          1.8644207225         0.8063295236        -1.8168220352
H          3.0917733398         0.1758998761        -0.8413180656
          10
ANG Step:         20 Time:      413.4079271770
N         -0.0088115330        -0.0338631477         0.0670490530
N          1.1907089663         0.0242643710        -0.1316132376
C         -0.7550233816        -0.0218082666        -1.2706648482
C          2.0410234067         0.0010045845        -1.2655940993
H         -1.6637835553         0.3105363769        -0.9414406350
H         -0.0574248167         0.8900819938        -1.9927207170
H         -0.8024345687        -0.9143009262        -1.8109984705
H          1.6221887047        -0.8910751465        -1.7016727167
H          1.8746791010         0.8134480839        -1.8206769906
H          3.0939365567         0.1698871412        -0.8530203732
          10
ANG Step:         21 Time:      434.0783235358
N         -0.0081260007        -0.0329655066         0.0669947290
N          1.1866121819         0.0246290605        -0.1340832963
C         -0.7585303471        -0.0214243146        -1.2718412018
C          2.0459220675         0.0004212326        -1.2639800902
H         -1.6575506082         0.2987753917        -0.9391335839
H         -0.0465183269         0.8880615334        -1.9636986653
H         -0.8009454179        -0.9144391242        -1.7914895483
H          1.6269648699        -0.8969626067        -1.6979333483
H          1.8833806908         0.8279831209        -1.8308131966
H          3.0926652378         0.1599934415        -0.8675953449
          10
ANG Step:         22 Time:      454.7487198947
N         -0.0082162091        -0.0322243278         0.0666948583
N          1.1832678573         0.0251919488        -0.1362743947
C         -0.7609949365        -0.0201266381        -1.2729518965
C          2.0510129658        -0.0004423593        -1.2617809121
H         -1.6586153246         0.2899458463        -0.9370884114
H         -0.0440771279         0.8786115542        -1.9300674152
H         -0.7988762982        -0.9189190489        -1.7738901673
H          1.6366239786        -0.9038268028        -1.6975459445
H          1.8908703852         0.8479277971        -1.8459430333
H          3.0885289973         0.1463839521        -0.8844760525
          10
ANG Step:         23 Time:      475.4191162535
N         -0.0091225838        -0.0316455113         0.0661744403
N          1.1807519884         0.0259587690        -0.1382003691
C         -0.7623673486        -0.0179096200        -1.2739477319
C          2.0561487030        -0.0014375438        -1.2591852745
H         -1.6673959583         0.2842535338        -0.9351755515
H         -0.0503002270         0.8618515535        -1.8924833759
H         -0.7962138271        -0.9280996298        -1.7586252011
H          1.6511195404        -0.9112397515        -1.7004108963
H          1.8975800667         0.8707739599        -1.8643931780
H          3.0824141681         0.1293379956        -0.9029777109
          10
ANG Step:         24 Time:      496.0895126123
N         -0.0108620880        -0.0312335199         0.0654604889
N          1.1791166903         0.0269310905        -0.1398769030
C         -0.7627019398        -0.0148091340        -1.2747747665
C          2.0611630091        -0.0024253194        -1.2563955741
H         -1.6832807029         0.2815075959        -0.9336053710
H         -0.0651428388         0.8381233613        -1.8517580293
H         -0.7929451188        -0.9416905404        -1.7457315493
H          1.6703042263        -0.9187398612        -1.7063519057
H          1.9039255224         0.8940449597        -1.8844542451
H          3.0755213657         0.1092416144        -0.9223170520
          10
ANG Step:         25 Time:      516.7599089712
N         -0.0134264993        -0.0309912043         0.0645808532
N          1.1783872776         0.0281064241        -0.1413204626
C         -0.7621543190        -0.0109210999        -1.2753648632
C          2.0658818447        -0.0032997822        -1.2536062293
H         -1.7047829365         0.2812069413        -0.9328692039
H         -0.0881827928         0.8081497123        -1.8089579706
H         -0.7890648479        -0.9587744064        -1.7349184106
H          1.6939173649        -0.9258612783        -1.7151270988
H          1.9102508461         0.9156215207        -1.9046003452
H          3.0693121392         0.0865645227        -0.9416492544
          10
ANG Step:         26 Time:      537.4303053300
N         -0.0167824089        -0.0309195628         0.0635630949
N          1.1785606542         0.0294783900        -0.1425475051
C         -0.7609704694        -0.0064224924        -1.2756226416
C          2.0701388083        -0.0039927383        -1.2509913655
H         -1.7298853771         0.2826844635        -0.9335990024
H         -0.1183989816         0.7733010626        -1.7655584146
H         -0.7845803251        -0.9779670745        -1.7256923969
H          1.7215769476        -0.9321628592        -1.7264412098
H          1.9168133665         0.9338583394        -1.9235751690
H          3.0653691092         0.0618211311        -0.9601288059
          10
ANG Step:         27 Time:      558.1007016889
N         -0.0208730731        -0.0310174481         0.0624333790
N          1.1796052918         0.0310369458        -0.1435741160
C         -0.7594827184        -0.0015974700        -1.2754066505
C          2.0737972559        -0.0044670252        -1.2486978789
H         -1.7564181044         0.2852468742        -0.9364159215
H         -0.1538426776         0.7359969527        -1.7236550222
H         -0.7795120992        -0.9976491899        -1.7174974780
H          1.7527783882        -0.9372547354        -1.7399587523
H          1.9237912999         0.9475701754        -1.9403933204
H          3.0651541586         0.0355257313        -0.9769910156
          10
ANG Step:         28 Time:      578.7710980477
N         -0.0256219695        -0.0312812558         0.0612153058
N          1.1814628834         0.0327686806        -0.1444160547
C         -0.7581178154         0.0031326540        -1.2745075920
C          2.0767766333        -0.0047069456        -1.2468412599
H         -1.7823516516         0.2882699803        -0.9418199823
H         -0.1912557302         0.7001902510        -1.6861923465
H         -0.7738909679        -1.0161920169        -1.7098268672
H          1.7869022260        -0.9408199902        -1.7553174034
H          1.9312998228         0.9559655503        -1.9543060481
H          3.0697020348         0.0081613318        -0.9916350692
          10
ANG Step:         29 Time:      599.4414944066
N         -0.0309376339        -0.0317046803         0.0599287631
N          1.1840516463         0.0346571637        -0.1450889975
C         -0.7573961246         0.0071990063        -1.2726398349
C          2.0790745273        -0.0047116212        -1.2455040519
H         -1.8059695643         0.2912411270        -0.9501330412
H         -0.2259167123         0.6716198788        -1.6570278438
H         -0.7677553674        -1.0321313892        -1.7022880447
H          1.8232320089        -0.9426293256        -1.7721402952
H          1.9394075475         0.9585768374        -1.9647625812
H          3.0793512364        -0.0198204720        -1.0036784532
          10
ANG Step:         30 Time:      620.1118907654
N         -0.0367190254        -0.0322786614         0.0585892933
N          1.1872711200         0.0366833134        -0.1456086461
C         -0.7578648837         0.0099594437        -1.2694828379
C          2.0807740325        -0.0044932237        -1.2447376260
H         -1.8259457980         0.2937603259        -0.9614803690
H         -0.2523663934         0.6570425032        -1.6404190686
H         -0.7611537361        -1.0442841128        -1.6946243156
H          1.8609816007        -0.9425477080        -1.7900459643
H          1.9481497401         0.9552093498        -1.9713821754
H          3.0936342056        -0.0479698406        -1.0129600009
          10
ANG Step:         31 Time:      640.7822871243
N         -0.0428604243        -0.0329915953         0.0572087218
N          1.1910079380         0.0388257648        -0.1459905530
C         -0.7599170399         0.0109228366        -1.2648052176
C          2.0820316487        -0.0040786846        -1.2445665748
H         -1.8413696314         0.2955195091        -0.9757920246
H         -0.2665486847         0.6616623398        -1.6395602880
H         -0.7541525868        -1.0518216468        -1.6867081552
H          1.8993286250        -0.9405336935        -1.8086554720
H          1.9575369102         0.9459169164        -1.9739428732
H          3.1113840972        -0.0758026490        -1.0194942415
          10
ANG Step:         32 Time:      661.4526834831
N         -0.0492553018        -0.0338296593         0.0557970047
N          1.1951415724         0.0410612710        -0.1462500103
C         -0.7635907916         0.0100222113        -1.2586156365
C          2.0830506862        -0.0035123127        -1.2449933819
H         -1.8517431308         0.2962814751        -0.9928165568
H         -0.2682100357         0.6859440455        -1.6548172653
H         -0.7468431059        -1.0543074009        -1.6785239882
H          1.9374489432        -0.9366336784        -1.8275971428
H          1.9675584115         0.9310044851        -1.9723887689
H          3.1310039483        -0.1027855281        -1.0234031639
          10
ANG Step:         33 Time:      682.1230798420
N         -0.0557994480        -0.0347769286         0.0543639329
N          1.1995491224         0.0433652011        -0.1464025275
C         -0.7685708911         0.0076521492        -1.2511888846
C          2.0840510370        -0.0028579182        -1.2460008195
H         -1.8569548689         0.2958749490        -1.0121491781
H         -0.2609181673         0.7251672189        -1.6834231833
H         -0.7393359388        -1.0516909909        -1.6701539395
H          1.9745472150        -0.9309742248        -1.8465103354
H          1.9781811117         0.9110558483        -1.9668560522
H          3.1507770508        -0.1283518847        -1.0248544957
          10
ANG Step:         34 Time:      702.7934762008
N         -0.0623935151        -0.0358152301         0.0529198405
N          1.2041089822         0.0457121265        -0.1464647593
C         -0.7743955007         0.0044222667        -1.2429346414
C          2.0852445522        -0.0022008671        -1.2475506680
H         -1.8572417612         0.2942081119        -1.0332709220
H         -0.2496443613         0.7723033213        -1.7210090844
H         -0.7317431111        -1.0442699578        -1.6617730252
H          2.0098807197        -0.9237550231        -1.8650504022
H          1.9893441846         0.8869837231        -1.9577179163
H          3.1691149369        -0.1519381976        -1.0240218711
          10
ANG Step:         35 Time:      723.4638725597
N         -0.0689445483        -0.0369240892         0.0514759399
N          1.2087037049         0.0480764201        -0.1464551983
C         -0.7806417702         0.0009022140        -1.2342505777
C          2.0868196081        -0.0016510249        -1.2495789458
H         -1.8531637002         0.2912901939        -1.0555879511
H         -0.2385914134         0.8209819887        -1.7633116719
H         -0.7241561603        -1.0326479599        -1.6536521094
H          2.0427760782        -0.9152430054        -1.8828966038
H          2.0009527419         0.8600952742        -1.9456453124
H          3.1847026386        -0.1730228975        -1.0210670097
          10
ANG Step:         36 Time:      744.1342689185
N         -0.0753665318        -0.0380810871         0.0500448534
N          1.2132223172         0.0504328239        -0.1463943333
C         -0.7869859555        -0.0024809166        -1.2254533311
C          2.0889337166        -0.0013461620        -1.2519895472
H         -1.8455982784         0.2872488411        -1.0784654949
H         -0.2304997620         0.8666620461        -1.8069690425
H         -0.7166284035        -1.0177020459        -1.6461611377
H          2.0726399380        -0.9057659611        -1.8997629873
H          2.0128745472         0.8321534577        -1.9316694051
H          3.1965536190        -0.1911560265        -1.0161362954
          10
ANG Step:         37 Time:      764.8046652774
N         -0.0815804746        -0.0392626316         0.0486412177
N          1.2175621465         0.0527569727        -0.1463044562
C         -0.7931875439        -0.0054367607        -1.2167723947
C          2.0917110146        -0.0014526583        -1.2546501461
H         -1.8357381416         0.2823353392        -1.1012588176
H         -0.2268544468         0.9065274606        -1.8495833528
H         -0.7091639614        -1.0005472322        -1.6397643385
H          2.0989650436        -0.8957033805        -1.9154105017
H          2.0249452202         0.8053913304        -1.9172107202
H          3.2040085444        -0.2059769117        -1.0093632884
          10
ANG Step:         38 Time:      785.4750616362
N         -0.0875144249        -0.0404449472         0.0472820896
N          1.2216301577         0.0550258414        -0.1462093132
C         -0.7990576386        -0.0077735829        -1.2083681435
C          2.0952414963        -0.0021573642        -1.2573963410
H         -1.8250614367         0.2769121675        -1.1233452659
H         -0.2283005751         0.9389963173        -1.8895076691
H         -0.7017144979        -0.9824769709        -1.6349999778
H          2.1213329990        -0.8854731214        -1.9296577355
H          2.0369869344         0.7824084212        -1.9040139279
H          3.2067107876        -0.2172229267        -1.0008710500
          10
ANG Step:         39 Time:      806.1454579951
N         -0.0931034449        -0.0416050781         0.0459870297
N          1.2253437729         0.0572180637        -0.1461335998
C         -0.8044377879        -0.0093649304        -1.2003531226
C          2.0995799335        -0.0036435266        -1.2600505266
H         -1.8152441444         0.2714172813        -1.1441576681
H         -0.2349838824         0.9632681817        -1.9256086627
H         -0.6941859332        -0.9648611842        -1.6324380542
H          2.1394149072        -0.8755141119        -1.9423878383
H          2.0488414081         0.7658703335        -1.8939183553
H          3.2045814422        -0.2247341913        -0.9907709213
          10
ANG Step:         40 Time:      826.8158543539
N         -0.0982894313        -0.0427217618         0.0447778555
N          1.2286311896         0.0593141089        -0.1461022732
C         -0.8091945043        -0.0101295940        -1.1928109287
C          2.1047439073        -0.0060489604        -1.2624570931
H         -1.8079929092         0.2663015516        -1.1632132066
H         -0.2467722719         0.9790086006        -1.9570821971
H         -0.6864582759        -0.9489969117        -1.6326123848
H          2.1529710737        -0.8662663706        -1.9535499908
H          2.0604087938         0.7579949295        -1.8884480736
H          3.1978062061        -0.2284579993        -0.9791566060
          10
ANG Step:         41 Time:      847.4862507128
N         -0.1030207188        -0.0437761059         0.0436781144
N          1.2314313274         0.0612963900        -0.1461397972
C         -0.8132265948        -0.0100224457        -1.1858127939
C          2.1107117558        -0.0094181634        -1.2645235002
H         -1.8048045621         0.2619440962        -1.1801273396
H         -0.2633848693         0.9861543653        -1.9833273869