10
ANG Step:        166 Time:     3431.2857955687
N     0.07496267    -0.35189381    -0.87700760
N     1.16196877     0.24667443    -0.72091823
C    -1.31571820     0.17483860    -0.63657831
C     2.56906468    -0.09576874    -0.60125621
H    -1.41311183     0.22249230     0.46429961
H    -1.37815675     1.21317140    -0.98493752
H    -2.16078529    -0.43761698    -1.00702217
H     2.70411741    -0.01505248     0.49872081
H     2.85283915    -1.25745670    -1.26606127
H     3.08571336     0.79250514    -0.98098410
