10
ANG Step:        440 Time:     9094.9743978930
N     0.07361011    -0.29627144    -0.42376919
N     1.13189804     0.35392459    -0.40492924
C    -1.22423253    -0.01563304    -1.01020960
C     2.46292274    -0.04257485    -0.85197146
H    -1.88562581     0.36169840    -0.26289510
H    -1.01344489     0.79708248    -1.86261220
H    -1.72573062    -0.78399843    -1.35675681
H     2.56698098    -1.01504075    -1.48890641
H     3.13107961     0.63070067    -1.61338487
H     3.22778186    -0.10103733     0.05370423
