10
ANG Step:        280 Time:     5787.7109804774
N     0.07066719    -0.07031638    -1.43232669
N     1.14022611     0.37655169    -1.14138306
C    -0.81190008    -0.10725159    -0.25512601
C     2.05241557    -0.16990648    -0.19988943
H    -0.20373809     0.06637608     0.64072049
H    -1.42883442     0.82314056    -0.22540129
H    -1.42282285    -0.99041919     0.04977819
H     2.95951882     0.68442763     0.20027563
H     1.64463665    -0.54967409     0.88843237
H     2.65612824    -0.99123052    -0.59318980
