10
ANG Step:        112 Time:     2315.0843921910
N     0.10984546    -0.44423744    -0.40687517
N     1.10304733     0.32995170    -0.45660278
C    -1.11901847     0.15238448    -0.94757179
C     2.37343391    -0.05720878    -0.90161016
H    -1.71707168     0.41048701    -0.10629175
H    -0.89159387     1.25442497    -1.34201667
H    -1.73074716    -0.33703392    -1.60748876
H     2.70574344    -1.16384470    -0.44032758
H     2.57185925    -0.40768553    -2.06155069
H     3.07383568     0.69593060    -0.64359128
