10
ANG Step:        466 Time:     9632.4047032231
N    -0.00835055    -0.37325807    -0.22808100
N     1.17549929     0.24748937    -0.27243916
C    -1.08554771     0.08721856    -1.14725244
C     2.43448380     0.02034527    -1.00431490
H    -1.85744711     0.64373753    -0.59758867
H    -0.77669477     0.72398885    -2.05881731
H    -1.38630997    -0.88937245    -1.61231861
H     2.34792558    -1.16199467    -1.04215613
H     2.11267194     0.69443264    -2.05416542
H     3.08113021     0.45330891    -0.28004514
