10
ANG Step:        364 Time:     7524.0242746206
N     0.18004452    -0.20460752    -1.04484635
N     1.12616944     0.54316331    -0.85726916
C    -1.19053824    -0.06954401    -0.54390680
C     2.33455377    -0.18541905    -0.45851662
H    -1.23130060     0.09151773     0.54683498
H    -1.86272922     0.62312063    -1.06435539
H    -1.53805260    -1.16730599    -0.59453015
H     3.31297258    -0.40202851    -1.15509043
H     3.11065722     0.31887791     0.38456774
H     2.23771890    -1.13495839     0.02942843
