10
ANG Step:        384 Time:     7937.4322017976
N     0.15055062    -0.25821760    -0.86222624
N     1.19495436     0.56279405    -0.74240136
C    -1.22588745    -0.10151468    -0.65901656
C     2.44271614    -0.18672942    -0.54338277
H    -1.43161925     0.25540639     0.36498706
H    -1.68864329     0.65705667    -1.37805803
H    -1.80587988    -1.04820710    -0.95658036
H     2.50340399    -0.52265058    -1.65298889
H     2.99681248     0.76324757    -0.03786140
H     2.04224470    -0.90724976     0.05496589
