10
ANG Step:        588 Time:    12154.1930590025
N     0.00130438    -0.31381151    -0.54018050
N     1.22036008     0.12231994    -0.12860462
C    -1.20163920     0.21397139    -1.08513117
C     2.50800723    -0.07466098    -0.93522870
H    -1.65555214     0.83623192    -0.29028319
H    -1.17972425     0.80559915    -2.08601090
H    -1.68822818    -0.68080746    -1.28154659
H     2.91344997     0.57191987    -0.15446938
H     2.61082062    -1.09059626    -1.12180500
H     2.26959182     0.55685254    -1.93572677
