10
ANG Step:        430 Time:     8888.2704343046
N     0.08834718    -0.32447257    -0.49296067
N     1.14913434     0.43656354    -0.47174749
C    -1.24402102     0.01276852    -0.96319569
C     2.55408354    -0.10774079    -0.80738476
H    -1.83524681     0.32392314    -0.07921325
H    -1.35305796     0.64563791    -1.73994890
H    -1.70538360    -1.03725269    -1.37888062
H     2.20753098    -0.86698192    -1.45550789
H     2.78606024     0.76868018    -1.28812386
H     2.90709645    -0.26322603     0.20995163
