          10
ANG Step:          0 Time:        0.0000000000
N         -0.0286947029        -0.0527178771         0.0213567560
N          1.2468652780         0.1045155256         0.0136816545
C         -0.7024267627        -0.0418929434        -1.2979436371
C          1.9726939979        -0.0230087520        -1.2996215786
H         -1.7706495623         0.0704563628        -1.0821545484
H         -0.3807631209         0.8511576318        -1.7916469064
H         -0.6012662630        -0.9470733874        -1.8498667289
H          1.3046679077        -0.6837376790        -2.2404337202
H          2.2040669267         1.2829985773        -1.7197300728
H          2.9941761409        -0.5230592798        -1.0904803951
          10
ANG Step:          1 Time:       20.6703963588
N         -0.0283339762        -0.0519077868         0.0187790659
N          1.2460745106         0.1047055631         0.0126533321
C         -0.7042409926        -0.0468426377        -1.2962700920
C          1.9721277926        -0.0238408113        -1.2980372074
H         -1.7724064814         0.0714632079        -1.0690049284
H         -0.3526317424         0.8730850309        -1.7974729940
H         -0.6066346167        -0.9167819574        -1.8428925907
H          1.3243011585        -0.6790624486        -2.2399471749
H          2.1937187655         1.2750060882        -1.7220025122
H          2.9982009948        -0.5180221022        -1.0916838501
          10
ANG Step:          2 Time:       41.3407927177
N         -0.0277191956        -0.0511770831         0.0160218234
N          1.2451575951         0.1047642054         0.0112661867
C         -0.7065295806        -0.0510942059        -1.2941078003
C          1.9718054990        -0.0243348958        -1.2968525881
H         -1.7729712499         0.0724793685        -1.0565856715
H         -0.3255635325         0.8926891483        -1.8037107797
H         -0.6104496672        -0.8906429331        -1.8382540407
H          1.3501830064        -0.6686109111        -2.2307091612
H          2.1816840542         1.2555403290        -1.7215168652
H          2.9969482352        -0.5102295866        -1.0944984765
          10
ANG Step:          3 Time:       62.0111890765
N         -0.0268540416        -0.0505437438         0.0130982895
N          1.2441249688         0.1046893575         0.0095349751
C         -0.7092401320        -0.0542428437        -1.2913894353
C          1.9717392937        -0.0244667593        -1.2960808020
H         -1.7722444878         0.0736030168        -1.0451553172
H         -0.3007350525         0.9082235795        -1.8094069355
H         -0.6123190352        -0.8715965817        -1.8377111563
H          1.3817092577        -0.6527204184        -2.2129145295
H          2.1681257748         1.2248552983        -1.7182359561
H          2.9906811556        -0.4998396189        -1.0987364947
          10
ANG Step:          4 Time:       82.6815854354
N         -0.0257475494        -0.0500247129         0.0100213016
N          1.2429879807         0.1044809618         0.0074792553
C         -0.7123129475        -0.0560047868        -1.2880626468
C          1.9719312688        -0.0242001982        -1.2957188148
H         -1.7702774690         0.0749202640        -1.0349225511
H         -0.2791024521         0.9185256938        -1.8139066593
H         -0.6119704054        -0.8617509119        -1.8425891399
H          1.4180317648        -0.6319579749        -2.1870610211
H          2.1532457080         1.1834445591        -1.7121726176
H          2.9800133370        -0.4871677997        -1.1041178101
          10
ANG Step:          5 Time:      103.3519817942
N         -0.0244136797        -0.0496355008         0.0068044952
N          1.2417590235         0.1041409254         0.0051225221
C         -0.7156728463        -0.0562643467        -1.2841380365
C          1.9723780722        -0.0234890548        -1.2957279679
H         -1.7672775359         0.0765092024        -1.0260383370
H         -0.2614084153         0.9229233727        -1.8167917049
H         -0.6093437894        -0.8617368653        -1.8532913416
H          1.4579591133        -0.6072535443        -2.1541281624
H          2.1373050256         1.1321993210        -1.7034362219
H          2.9659316027        -0.4726884781        -1.1102674252
          10
ANG Step:          6 Time:      124.0223781531
N         -0.0228708261        -0.0493899122         0.0034632682
N          1.2404518093         0.1036730057         0.0024909335
C         -0.7192243186        -0.0550805703        -1.2797127020
C          1.9730783546        -0.0222832492        -1.2960027866
H         -1.7636017572         0.0784424144        -1.0185920983
H         -0.2482025855         0.9211350109        -1.8178235585
H         -0.6046402749        -0.8705322236        -1.8690903692
H          1.4998202960        -0.5800982552        -2.1158456205
H          2.1206541607         1.0726721778        -1.6923191556
H          2.9498082157        -0.4570299436        -1.1167169080
          10
ANG Step:          7 Time:      144.6927745119
N         -0.0211413915        -0.0492999508         0.0000151794
N          1.2390818750         0.1030826886        -0.0003884444
C         -0.7228544824        -0.0526450059        -1.2749552846
C          1.9740431641        -0.0205441808        -1.2963272426
H         -1.7597342286         0.0807856496        -1.0126135489
H         -0.2398594656         0.9131903973        -1.8169046331
H         -0.5982948504        -0.8858809250        -1.8883457237
H          1.5413188805        -0.5527936643        -2.0750306506
H          2.1037717291         1.0074835216        -1.6794459307
H          2.9333743627        -0.4409509511        -1.1229171232
          10
ANG Step:          8 Time:      165.3631708708
N         -0.0192514399        -0.0493758430        -0.0035201827
N          1.2376673698         0.1023771145        -0.0034897472
C         -0.7264436642        -0.0492160160        -1.2700656970
C          1.9753052577        -0.0182789302        -1.2963277101
H         -1.7562448565         0.0835927410        -1.0080801942
H         -0.2365854266         0.8993829423        -1.8140603213
H         -0.5908886702        -0.9050169600        -1.9089887302
H          1.5794698560        -0.5286586009        -2.0358583212
H          2.0873043938         0.9408751597        -1.6660053982
H          2.9186208319        -0.4252842624        -1.1282698422
          10
ANG Step:          9 Time:      186.0335672296
N         -0.0172303680        -0.0496260677        -0.0071216262
N          1.2362300378         0.1015650659        -0.0067902565
C         -0.7298801033        -0.0450638115        -1.2652341136
C          1.9769153319        -0.0156028740        -1.2954567877
H         -1.7537302345         0.0868984274        -1.0049293837
H         -0.2384109357         0.8802562645        -1.8094415716
H         -0.5830482141        -0.9252930386        -1.9289871190
H          1.6108185659        -0.5119324002        -2.0036894640
H          2.0720778781         0.8792575812        -1.6540378955
H          2.9076020761        -0.4108397799        -1.1321814090
          10
ANG Step:         10 Time:      206.7039635885
N         -0.0151105457        -0.0500573066        -0.0107668626
N          1.2347959800         0.1006569036        -0.0102712141
C         -0.7330752766        -0.0404422986        -1.2606135580
C          1.9789103141        -0.0128152225        -1.2930736232
H         -1.7527412018         0.0907110347        -1.0030733357
H         -0.2451669116         0.8566242523        -1.8033474895
H         -0.5753694270        -0.9445252461        -1.9466240251
H          1.6321796571        -0.5069621725        -1.9838960745
H          2.0590100080         0.8311689113        -1.6465764448
H          2.9021567071        -0.3982798968        -1.1341311599
          10
ANG Step:         11 Time:      227.3743599473
N         -0.0129269226        -0.0506743015        -0.0144330113
N          1.2333955698         0.0996642008        -0.0139166124
C         -0.7359777761        -0.0355847695        -1.2563064345
C          1.9812636571        -0.0103963261        -1.2886671874
H         -1.7537065335         0.0950068152        -1.0024150122
H         -0.2564470026         0.8296196202        -1.7962670775
H         -0.5683773467        -0.9610864357        -1.9605917608
H          1.6418013909        -0.5165825999        -1.9796597022
H          2.0488454358         0.8055099982        -1.6471433200
H          2.9036068458        -0.3880045948        -1.1337367478
          10
ANG Step:         12 Time:      248.0447563062
N         -0.0107164928        -0.0514796343        -0.0180971381
N          1.2320622406         0.0985988983        -0.0177104769
C         -0.7385842978        -0.0307130571        -1.2523596743
C          1.9838707279        -0.0088020220        -1.2821326356
H         -1.7568671936         0.0997275952        -1.0028617347
H         -0.2715631915         0.8007570804        -1.7889346782
H         -0.5625130710        -0.9738591713        -1.9699727576
H          1.6401613901        -0.5406705181        -1.9902262425
H          2.0417891048         0.8075965697        -1.6581982929
H          2.9125199480        -0.3800878721        -1.1307985871
          10
ANG Step:         13 Time:      268.7151526650
N         -0.0085174172        -0.0524734255        -0.0217368996
N          1.2308308864         0.0974722660        -0.0216351317
C         -0.7409457219        -0.0260497439        -1.2487646452
C          1.9865990992        -0.0081706557        -1.2738705303
H         -1.7622365834         0.1047825836        -1.0043329621
H         -0.2895137801         0.7719790694        -1.7823812256
H         -0.5581353207        -0.9821400591        -1.9741754109
H          1.6296082257        -0.5762674879        -2.0114041534
H          2.0373964863         0.8358051681        -1.6794634610
H          2.9285904003        -0.3742771563        -1.1253167257
          10
ANG Step:         14 Time:      289.3855490239
N         -0.0063676941        -0.0536529371        -0.0253311815
N          1.2297367688         0.0962943106        -0.0256724414
C         -0.7431650173        -0.0218239913        -1.2454619850
C          1.9893528157        -0.0082887388        -1.2645952196
H         -1.7695975961         0.1100539336        -1.0067597307
H         -0.3090012086         0.7456246967        -1.7779417699
H         -0.5555268137        -0.9855469379        -1.9728659186
H          1.6132314743        -0.6190839283        -2.0377405375
H          2.0349007227         0.8827223414        -1.7080171253
H          2.9506701164        -0.3700424633        -1.1174800226
          10
ANG Step:         15 Time:      310.0559453827
N         -0.0043035715        -0.0550121828        -0.0288604058
N          1.2288146082         0.0950739017        -0.0298067061
C         -0.7453831488        -0.0182620718        -1.2423550746
C          1.9921007987        -0.0088162025        -1.2550347071
H         -1.7785375837         0.1154048017        -1.0100759478
H         -0.3285515305         0.7242403209        -1.7771561358
H         -0.5549000145        -0.9839510948        -1.9659159548
H          1.5939208783        -0.6649607960        -2.0643783744
H          2.0336059013         0.9393736259        -1.7400049108
H          2.9769608509        -0.3666679658        -1.1076268450
          10
ANG Step:         16 Time:      330.7263417416
N         -0.0023579729        -0.0565417625        -0.0323062999
N          1.2280971271         0.0938192686        -0.0340264771
C         -0.7477516337        -0.0155569041        -1.2393364761
C          1.9948702923        -0.0094771582        -1.2457504006
H         -1.7885118818         0.1206884543        -1.0142044887
H         -0.3467675819         0.7101733967        -1.7815018943
H         -0.5563995375        -0.9774414112        -1.9533738356
H          1.5739754556        -0.7105583300        -2.0877738956
H          2.0330368569         0.9982939949        -1.7721020794
H          3.0053240332        -0.3633730965        -1.0961845487
          10
ANG Step:         17 Time:      351.3967381004
N         -0.0005590644        -0.0582290518        -0.0356512711
N          1.2276130999         0.0925384349        -0.0383242597
C         -0.7503977551        -0.0138216076        -1.2363253899
C          1.9977239452        -0.0101106081        -1.2371071848
H         -1.7989193924         0.1257573495        -1.0190428703
H         -0.3626649352         0.7050112398        -1.7919757524
H         -0.5600996440        -0.9663211286        -1.9354614712
H          1.5550843518        -0.7534459777        -2.1056448884
H          2.0329118034         1.0543296115        -1.8019868096
H          3.0336021769        -0.3594280743        -1.0836070583
          10
ANG Step:         18 Time:      372.0671344593
N          0.0010708916        -0.0600586873        -0.0388777786
N          1.2273854257         0.0912394689        -0.0426946973
C         -0.7533973516        -0.0130476447        -1.2333014257
C          2.0007358972        -0.0106459346        -1.2293152459
H         -1.8091730038         0.1304721276        -1.0244533095
H         -0.3759304645         0.7091069221        -1.8086898148
H         -0.5659958920        -0.9511357145        -1.9125976178
H          1.5384456600        -0.7919437866        -2.1166606295
H          2.0330745433         1.1042634386        -1.8282216894
H          3.0598600874        -0.3542321138        -1.0703277052
          10
ANG Step:         19 Time:      392.7375308181
N          0.0025161999        -0.0620131732        -0.0419681063
N          1.2274295626         0.0899306503        -0.0471321423
C         -0.7567699972        -0.0130922557        -1.2303132505
C          2.0039745284        -0.0110655299        -1.2224830191
H         -1.8187531170         0.1347109394        -1.0302600766
H         -0.3869366318         0.7214817706        -1.8307310741
H         -0.5739908387        -0.9327294006        -1.8854459476
H          1.5249005860        -0.8249199676        -2.1201347684
H          2.0334416224         1.1462030126        -1.8499862622
H          3.0825176000        -0.3473473904        -1.0567324001
          10
ANG Step:         20 Time:      413.4079271770
N          0.0037677990        -0.0640734723        -0.0449047215
N          1.2277524215         0.0886206720        -0.0516282652
C         -0.7604970649        -0.0137011259        -1.2274535548
C          2.0074928867        -0.0113767780        -1.2166589994
H         -1.8272417342         0.1383787422        -1.0362538056
H         -0.3965047724         0.7401691760        -1.8563897990
H         -0.5838758049        -0.9123249131        -1.8549806980
H          1.5150424506        -0.8516204821        -2.1157968816
H          2.0339700107         1.1790799626        -1.8668463324
H          3.1003955459        -0.3385006460        -1.0431488842
          10
ANG Step:         21 Time:      434.0783235358
N          0.0048227614        -0.0662195669        -0.0476710700
N          1.2283517433         0.0873189265        -0.0561700727
C         -0.7645480802        -0.0145483357        -1.2248150071
C          2.0113246459        -0.0115951136        -1.2118596166
H         -1.8343416503         0.1414151251        -1.0421998328
H         -0.4055811379         0.7627701553        -1.8836062604
H         -0.5953149235        -0.8916085891        -1.8225494356
H          1.5092945928        -0.8715468869        -2.1036437369
H          2.0346388119         1.2023128062        -1.8785957181
H          3.1127129223        -0.3275686347        -1.0298449296
          10
ANG Step:         22 Time:      454.7487198947
N          0.0056834248        -0.0684310427        -0.0502524582
N          1.2292159291         0.0860358653        -0.0607385059
C         -0.7688998072        -0.0152730769        -1.2224521785
C          2.0154829918        -0.0117346320        -1.2080859813
H         -1.8398871297         0.1437992129        -1.0478471612
H         -0.4149937117         0.7869315248        -1.9103883203
H         -0.6078443310        -0.8727732950        -1.7898902294
H          1.5079612383        -0.8843791765        -2.0838532197
H          2.0354390254         1.2155996525        -1.8851588298
H          3.1190678980        -0.3145596609        -1.0170292824
          10
ANG Step:         23 Time:      475.4191162535
N          0.0063563666        -0.0706877132        -0.0526367116
N          1.2303242964         0.0847833924        -0.0653076732
C         -0.7735416610        -0.0155098005        -1.2203673079
C          2.0199605580        -0.0118027546        -1.2053326608
H         -1.8438502884         0.1455513568        -1.0529358771
H         -0.4253441385         0.8106156587        -1.9350599573
H         -0.6209060975        -0.8584269385        -1.7590364960
H          1.5112559495        -0.8899375829        -2.0567453612
H          2.0363676106         1.2188000398        -1.8865360449
H          3.1194234452        -0.2995978851        -1.0048509834
          10
ANG Step:         24 Time:      496.0895126123
N          0.0068514099        -0.0729702411        -0.0548144638
N          1.2316476662         0.0835752384        -0.0698446638
C         -0.7784688664        -0.0149237251        -1.2185253078
C          2.0247295609        -0.0117964717        -1.2035907061
H         -1.8463442390         0.1467321698        -1.0572024511
H         -0.4369999545         0.8321885799        -1.9563422876
H         -0.6339344229        -0.8512521330        -1.7320464294
H          1.5193096501        -0.8881806543        -2.0227809975
H          2.0374236763         1.2118763067        -1.8827781991
H          3.1141072713        -0.2829126016        -0.9933943285
          10
ANG Step:         25 Time:      516.7599089712
N          0.0071807406        -0.0752606883        -0.0567791628
N          1.2331491966         0.0824272544        -0.0743098515
C         -0.7836685984        -0.0132615189        -1.2168911735
C          2.0297423046        -0.0116985136        -1.2028460341
H         -1.8476213208         0.1474390568        -1.0603837199
H         -0.4501327958         0.8504076259        -1.9733327196
H         -0.6464869183        -0.8533821199        -1.7105714758
H          1.5321564894        -0.8792426620        -1.9825947864
H          2.0386054374         1.1948775002        -1.8739822821
H          3.1038263780        -0.2648315717        -0.9826680788
          10
ANG Step:         26 Time:      537.4303053300
N          0.0073580985        -0.0775429714        -0.0585270677
N          1.2347853805         0.0813575514        -0.0786576103
C         -0.7891068648        -0.0104063575        -1.2154701759
C          2.0349333117        -0.0114723473        -1.2030732082
H         -1.8480622709         0.1477990012        -1.0622212070
H         -0.4647653066         0.8643741782        -1.9854454131
H         -0.6583678001        -0.8656856628        -1.6954297995
H          1.5496919192        -0.8635202838        -1.9370643261
H          2.0399069945         1.1679598307        -1.8603057918
H          3.0896873013        -0.2457750338        -0.9725893156
          10
ANG Step:         27 Time:      558.1007016889
N          0.0073979733        -0.0798032257        -0.0600575335
N          1.2365071642         0.0803864117        -0.0828374465
C         -0.7947242917        -0.0064059746        -1.2143258135
C          2.0402255041        -0.0110553548        -1.2042236669
H         -1.8481506156         0.1479557044        -1.0624676446
H         -0.4808098012         0.8734856367        -1.9923517412
H         -0.6696664340        -0.8873663808        -1.6864387734
H          1.5715945055        -0.8418253160        -1.8874196726
H          2.0413141589         1.1314479045        -1.8420025163
H          3.0732019129        -0.2262449639        -0.9629654086
          10
ANG Step:         28 Time:      578.7710980477
N          0.0073148146        -0.0820300502        -0.0613736309
N          1.2382612368         0.0795359319        -0.0867956758
C         -0.8004439477        -0.0014507419        -1.2135644818
C          2.0455437838        -0.0103504849        -1.2062067433
H         -1.8484280904         0.1480510837        -1.0608964673
H         -0.4980939342         0.8774004053        -1.9939386746
H         -0.6806830381        -0.9161638787        -1.6826190102
H          1.5972042923        -0.8156216639        -1.8353932631
H          2.0427986545         1.0859520459        -1.8194887591
H          3.0562461783        -0.2068027646        -0.9534825610
          10
ANG Step:         29 Time:      599.4414944066
N          0.0071223932        -0.0842145655        -0.0624827945
N          1.2399916276         0.0788294187        -0.0904778579
C         -0.8061867614         0.0041856119        -1.2132997513
C          2.0508386701        -0.0092194770        -1.2088625380
H         -1.8494324484         0.1482047913        -1.0573133684
H         -0.5163738515         0.8760219026        -1.9902914496
H         -0.6917956656        -0.9490175706        -1.6826151582
H          1.6253652407        -0.7873443280        -1.7833875325
H          2.0443100753         1.0325702984        -1.7934568249
H          3.0409324994        -0.1880293511        -0.9437152021
          10
ANG Step:         30 Time:      620.1118907654
N          0.0068334641        -0.0863502344        -0.0633970746
N          1.2416417932         0.0782906328        -0.0938321689
C         -0.8118873686         0.0102072349        -1.2136180378
C          2.0561174605        -0.0074883754        -1.2119300895
H         -1.8516253077         0.1484975732        -1.0515682798
H         -0.5353369065         0.8695057195        -1.9817018450
H         -0.7033472097        -0.9827832297        -1.6850797899
H          1.6542874179        -0.7607158846        -1.7345754424
H          2.0457648487         0.9732165132        -1.7650609851
H          3.0293694895        -0.1704661299        -0.9331727252
          10
ANG Step:         31 Time:      640.7822871243
N          0.0064597291        -0.0884324939        -0.0641327822
N          1.2431572977         0.0779429936        -0.0968136300
C         -0.8175061318         0.0163338225        -1.2145571949
C          2.0614679538        -0.0049912141        -1.2150247416
H         -1.8553223044         0.1489631935        -1.0435667223
H         -0.5545964283         0.8582925941        -1.9687013071
H         -0.7155889024        -1.0147066464        -1.6888874081
H          1.6815859877        -0.7407811001        -1.6927378328
H          2.0470308182         0.9111102530        -1.7362008354
H          3.0233307380        -0.1545440022        -0.9213908688
          10
ANG Step:         32 Time:      661.4526834831
N          0.0060119828        -0.0904583217        -0.0647096272
N          1.2444889034         0.0778087773        -0.0993885862
C         -0.8230364505         0.0223110552        -1.2160970434
C          2.0670462114        -0.0016890443        -1.2176506271
H         -1.8606397243         0.1495906969        -1.0332801708
H         -0.5736815204         0.8431662597        -1.9521155714
H         -0.7286712769        -1.0426109579        -1.6931926345
H          1.7047487312        -0.7331434301        -1.6615742696
H          2.0479045423         0.8513723806        -1.7098820588
H          3.0239251831        -0.1405171328        -0.9080507863
          10
ANG Step:         33 Time:      682.1230798420
N          0.0055003534        -0.0924258761        -0.0651496661
N          1.2455954983         0.0779081550        -0.1015382871
C         -0.8285076809         0.0279029330        -1.2181566053
C          2.0730118954         0.0021440000        -1.2192691932
H         -1.8674698007         0.1503360133        -1.0207549854
H         -0.5920264714         0.8253266324        -1.9331304638
H         -0.7426587933        -1.0648942223        -1.6974024129
H          1.7221045532        -0.7420889116        -1.6434956498
H          2.0480797080         0.8013373177        -1.6904554431
H          3.0314001855        -0.1284234766        -0.8930823727
          10
ANG Step:         34 Time:      702.7934762008
N          0.0049346900        -0.0943343057        -0.0654763602
N          1.2464460705         0.0782578144        -0.1032603574
C         -0.8339837303         0.0328778201        -1.2205952941
C          2.0794512033         0.0058299728        -1.2194168956
H         -1.8754910388         0.1511400841        -1.0061184507
H         -0.6089681945         0.8064504437        -1.9133425728
H         -0.7575499528        -1.0804450237        -1.7011200381
H          1.7337204491        -0.7684848201        -1.6386213424
H          2.0471288729         0.7695583471        -1.6831548185
H          3.0451587474        -0.1180915864        -0.8767055636
          10
ANG Step:         35 Time:      723.4638725597
N          0.0043251026        -0.0961837783        -0.0657138296
N          1.2470202381         0.0788691679        -0.1045676880
C         -0.8395568749         0.0369994380        -1.2232200700
C          2.0863570625         0.0085367870        -1.2178555207
H         -1.8842112960         0.1519494006        -0.9895794442
H         -0.6237661917         0.7886810783        -1.8947418852
H         -0.7732941043        -1.0885458466        -1.7040912676
H          1.7413405554        -0.8093319946        -1.6449108702
H          2.0445886367         0.7624708526        -1.6922242032
H          3.0639624926        -0.1091987866        -0.8593928173
          10
ANG Step:         36 Time:      744.1342689185
N          0.0036824853        -0.0979756925        -0.0658861273
N          1.2473077536         0.0797467607        -0.1054858206
C         -0.8453360717         0.0400335366        -1.2258044075
C          2.0936641477         0.0097642916        -1.2147068232
H         -1.8930337386         0.1527340680        -0.9714212048
H         -0.6356648338         0.7744592366        -1.8795479903
H         -0.7898028069        -1.0887985324        -1.7061639405
H          1.7474209000        -0.8593890244        -1.6592692204
H          2.0402279915         0.7803376091        -1.7183329807
H          3.0862116619        -0.1013575611        -0.8417774953
          10
ANG Step:         37 Time:      764.8046652774
N          0.0030188310        -0.0997129369        -0.0660164521
N          1.2473081989         0.0808877946        -0.1060510079
C         -0.8514297025         0.0417778193        -1.2281240308
C          2.1012863661         0.0095467391        -1.2104232642
H         -1.9013319921         0.1534991843        -0.9519852714
H         -0.6440123594         0.7661206453        -1.8698377918
H         -0.8069568742        -1.0810858306        -1.7072645990
H          1.7541862201        -0.9132128707        -1.6786193219
H          2.0342946948         0.8169572003        -1.7579738333
H          3.1101911925        -0.0941877198        -0.8245560000
          10
ANG Step:         38 Time:      785.4750616362
N          0.0023472092        -0.1014000888        -0.0661264726
N          1.2470310586         0.0822830851        -0.1063093587
C         -0.8579250619         0.0421115779        -1.2300047367
C          2.1091429438         0.0082219149        -1.2055711040
H         -1.9085212146         0.1542880071        -0.9316486013
H         -0.6484225757         0.7653066608        -1.8670141599
H         -0.8246112395        -1.0655733926        -1.7073939265
H          1.7632226622        -0.9663042116        -1.7004180939
H          2.0274338785         0.8635814951        -1.8056147044
H          3.1342414879        -0.0873529075        -0.8084130754
          10
ANG Step:         39 Time:      806.1454579951
N          0.0016813724        -0.1030435372        -0.0662360503
N          1.2464949906         0.0839188519        -0.1063152649
C         -0.8648705843         0.0410441008        -1.2313622369
C          2.1171736863         0.0061442263        -1.2006298216
H         -1.9141150820         0.1551784617        -0.9107983008
H         -0.6489175550         0.7724342697        -1.8713441713
H         -0.8425995397        -1.0427519987        -1.7066430137
H          1.7754777225        -1.0153675148        -1.7227393431
H          2.0203995258         0.9125804974        -1.8560800762
H          3.1568735620        -0.0805730122        -0.7939679908
          10
ANG Step:         40 Time:      826.8158543539
N          0.0010350181        -0.1046515389        -0.0663635982
N          1.2457259014         0.0857785129        -0.1061282732
C         -0.8722681304         0.0387341162        -1.2322090254
C          2.1253399313         0.0035659010        -1.1959241802
H         -1.9177634985         0.1562759417        -0.8898087020
H         -0.6459677044         0.7865496331        -1.8818548351
H         -0.8607399873        -1.0135169680        -1.7052325765
H          1.7914109716        -1.0581501698        -1.7441746574
H          2.0138442996         0.9586767155        -1.9055429833
H          3.1768459337        -0.0736274529        -0.7817352051
          10
ANG Step:         41 Time:      847.4862507128
N          0.0004208124        -0.1062342133        -0.0665270527
N          1.2447544822         0.0878440742        -0.1058092380
C         -0.8800778938         0.0354709030        -1.2326216459
C          2.1336162662         0.0006370138        -1.1916450198
H         -1.9192711465         0.1577046703        -0.8690236513
H         -0.6403963868         0.8056664223        -1.8966629134