10
ANG Step:        498 Time:    10293.8573867062
N    -0.01990349     0.23515583    -1.10049316
N     1.29434453     0.46932064    -0.94702963
C    -1.14907881    -0.17060477    -0.33627726
C     2.37475889    -0.39678862    -0.50704700
H    -1.49583663     0.36923255     0.43321301
H    -1.98466300    -0.53602108    -0.82534788
H    -1.01549434    -1.24989363     0.08421277
H     2.85181597     0.21043600     0.26637788
H     1.97354262    -1.35164261    -0.31381950
H     3.16587771    -0.47600959    -1.37256510
