10
ANG Step:        420 Time:     8681.5664707161
N     0.00324101     0.21988712    -1.33494698
N     1.16705657     0.62341072    -0.84353030
C    -0.88978239    -0.20466140    -0.28122871
C     2.16978866    -0.50525007    -0.46796988
H    -1.35416830     0.65853660     0.38297192
H    -1.54833588    -0.96401093    -0.69621599
H    -0.19989700    -0.91195277     0.49238897
H     2.42640731    -0.28062850     0.55913194
H     1.86533631    -1.57397326    -0.68735867
H     3.10669379    -0.19390957    -1.07975987
