10
ANG Step:        226 Time:     4671.5095770996
N     0.10413458    -0.14312187    -0.56959394
N     1.21542278     0.34509160    -1.01103647
C    -1.34538331     0.13001845    -0.61030439
C     2.52723293    -0.27980790    -0.62290257
H    -1.64347578    -0.90469011    -0.71108301
H    -1.88754019     0.57188844     0.06401899
H    -1.68094958     0.59246479    -1.51276943
H     2.95184887    -1.04061568    -1.46243078
H     3.18083889     0.51957679    -0.42777940
H     2.47561013    -0.76399143     0.47959781
