10
ANG Step:        212 Time:     4382.1240280757
N     0.04187308    -0.10683040    -1.33787710
N     1.10108892     0.30407564    -0.75740670
C    -1.03780460     0.07297361    -0.37237851
C     2.37682586    -0.24233677    -0.44533981
H    -0.88768378    -0.75302064     0.21899744
H    -0.95584522     1.10719190     0.28910363
H    -2.08123558    -0.01357401    -0.88002338
H     2.13928945    -0.82311373     0.45886953
H     2.91480664    -0.86845462    -1.21381838
H     2.84661674     0.62483358    -0.23985785
