10
ANG Step:        334 Time:     6903.9123838552
N     0.11976297    -0.26753652    -1.09044732
N     1.16266346     0.45406362    -1.27683132
C    -0.98135983    -0.03696364    -0.28612473
C     2.19819635    -0.14367571    -0.27281219
H    -0.64232669     0.05823640     0.61969896
H    -1.22625041     0.94406950    -0.52439599
H    -1.82353221    -0.74441639    -0.59139851
H     1.79186652    -0.24189121     0.68859190
H     2.26486333    -1.06407554    -0.59938591
H     3.12612276     0.60515643    -0.26406114
