10
ANG Step:        350 Time:     7234.6387255967
N     0.06554724    -0.57732280    -1.02121330
N     1.17812829     0.24687509    -1.00243895
C    -1.22582847    -0.05699389    -0.48307162
C     2.46014106     0.32301127    -0.37249124
H    -1.19265263     0.77476725     0.22390579
H    -1.66966378     0.33420668    -1.33335745
H    -1.89941818    -0.85765562    -0.13862105
H     2.84087162    -0.61483482     0.22747481
H     3.35541948     0.69011738    -1.10876027
H     2.38708465     1.09545947     0.21631094
