10
ANG Step:         16 Time:      330.7263417416
N    -0.01787161    -0.03885432     0.06444347
N     1.21248931     0.02453066    -0.11879205
C    -0.73407212    -0.01500120    -1.26647204
C     2.02509395    -0.00053264    -1.26456206
H    -1.72850026     0.37196165    -0.96271430
H    -0.17620072     0.82596559    -2.05263413
H    -0.80271835    -0.93629564    -1.88959726
H     1.65018037    -0.88304804    -1.74888892
H     1.82442480     0.83223691    -1.84370417
H     3.06340771     0.17066212    -0.82715215
