10
ANG Step:        378 Time:     7813.4098236445
N     0.01527320    -0.02511103    -1.34103414
N     1.16721503     0.42855771    -0.82240434
C    -1.14299968    -0.00496380    -0.33901476
C     2.45001465    -0.34745960    -0.39373012
H    -0.64340345    -0.52716161     0.48957562
H    -1.40573135     1.04949673    -0.23878779
H    -1.99163721    -0.65027134    -0.82454868
H     2.46340358     0.09599004     0.66300526
H     2.22258247    -1.38240622    -0.46163000
H     3.16211730     0.00311065    -1.05868925
