10
ANG Step:        520 Time:    10748.6061066009
N     0.04428139    -0.33787403    -0.40531705
N     1.13628544    -0.03584943    -1.01800531
C    -1.16655274     0.37907311    -0.68313421
C     2.46098870    -0.07409885    -0.67914047
H    -0.90839719     1.34892051    -0.94577332
H    -1.74011881    -0.32845714    -1.35585732
H    -2.00214169     0.73099182     0.12576085
H     2.91807290     0.26001448    -1.65692251
H     2.79613351     0.56726246     0.03823608
H     2.92593958    -1.02022308    -0.42401730
