10
ANG Step:        144 Time:     2976.5370756741
N     0.09125128    -0.37728576    -0.65012324
N     1.10980371     0.35471911    -0.43996470
C    -1.16662980     0.15948873    -0.83546453
C     2.45920762    -0.13656823    -0.86087872
H    -1.58050793     0.32354422     0.13145987
H    -1.27715150     1.12544865    -1.35121904
H    -1.90526209    -0.85365927    -1.19991610
H     2.44092932    -1.29193975    -0.73213685
H     2.67961599     0.46410141    -1.66969069
H     3.36357607     0.27081667    -0.05140353
