10
ANG Step:        470 Time:     9715.0862886585
N     0.10239952    -0.24571536    -0.10433932
N     1.25927811     0.19877408     0.11100051
C    -0.80112580     0.11878607    -1.21885634
C     1.94503524    -0.07968736    -1.32266922
H    -1.92487811    -0.14461732    -1.20591593
H    -0.64003199     1.15422567    -1.58398543
H    -0.58214156    -0.46487621    -2.02203404
H     1.97315381    -1.05950220    -1.80139907
H     1.44086670     0.59477145    -1.99003720
H     2.99388844     0.10201553    -1.45031814
