10
ANG Step:         58 Time:     1198.8829888132
N    -0.09377525    -0.04574784     0.05084638
N     1.19228956     0.07464666    -0.17417943
C    -0.85275251     0.03224729    -1.17814409
C     2.23337050    -0.05716664    -1.29626496
H    -1.92693838     0.09928124    -0.99593804
H    -0.62945367     0.74388287    -1.97635318
H    -0.65804954    -0.86982717    -1.76056248
H     1.87829858    -0.91504456    -1.90467796
H     2.27387102     0.87073561    -1.79024453
H     3.16171336    -0.03637258    -0.61253404
