10
ANG Step:        272 Time:     5622.3478096066
N     0.13275689    -0.37120284    -1.16214944
N     1.06013170     0.36460153    -0.65089283
C    -1.11618319     0.12501624    -0.40930093
C     2.38911707    -0.13457321    -0.62832867
H    -0.91595991     0.83404980     0.38190636
H    -1.84463902     0.62145421    -1.05885412
H    -1.43372503    -0.55511349     0.13199751
H     2.67882268    -0.95130663     0.12053823
H     2.47760946    -0.55038169    -1.61618312
H     3.10546657     0.80487812    -0.63086476
