10
ANG Step:        476 Time:     9839.1086668116
N     0.06703941    -0.23692836    -0.07771620
N     1.26829645     0.18110357     0.08466772
C    -0.81165368     0.12487588    -1.22469745
C     1.96257625    -0.08809533    -1.35059555
H    -1.76672596    -0.15366827    -1.11846916
H    -0.75082637     1.18747313    -1.50452557
H    -0.54938947    -0.49210123    -2.03539335
H     2.01293942    -1.06300271    -1.67652345
H     1.51327725     0.58433640    -2.05288570
H     3.08407999     0.26998296    -1.26794395
