10
ANG Step:        120 Time:     2480.4475630617
N     0.15756179    -0.38786000    -0.50066377
N     1.16662568     0.37219893    -0.28950749
C    -1.15758168     0.11178936    -0.91109112
C     2.32467531    -0.07624627    -0.94276601
H    -1.73605059     0.48081645    -0.09032647
H    -0.93928146     0.99993274    -1.67981259
H    -1.73777915    -0.66246611    -1.84229884
H     2.15694821    -1.15877937    -1.32114550
H     2.51584432     0.14156662    -1.97990376
H     3.24500534    -0.00903180    -0.25096508
