10
ANG Step:        458 Time:     9467.0415323523
N     0.04861198     0.01812581    -0.23463769
N     1.10866206     0.29330549    -0.82222572
C    -1.25007343    -0.42324912    -0.97337648
C     2.54735233     0.12693522    -0.70750880
H    -1.71624009    -1.41338719    -0.69403488
H    -1.81101857     0.34040922    -0.58991976
H    -1.05898947    -0.11862901    -2.00821642
H     2.93161052    -0.54086964    -0.06939142
H     3.05822694    -0.13008380    -1.85369773
H     2.86810683     1.06188124    -0.30404039
