10
ANG Step:        406 Time:     8392.1809216922
N    -0.04235644    -0.23147210    -1.24236532
N     1.12568606     0.26130329    -0.87347839
C    -1.15891543    -0.00387589    -0.39226733
C     2.57029905    -0.06129461    -0.41174901
H    -0.99718772    -0.68610024     0.46162487
H    -1.39176041     1.12262679    -0.30670513
H    -2.16379154    -0.14462459    -0.89358545
H     2.59911550     0.74353166     0.37390956
H     2.69754767    -0.88373581     0.27096670
H     3.19606027     0.20779114    -1.15290012
