10
ANG Step:         54 Time:     1116.2014033778
N    -0.11054929    -0.04815522     0.04641258
N     1.21386283     0.07395097    -0.16187968
C    -0.83185709     0.03888784    -1.17419419
C     2.20852529    -0.05891533    -1.29066555
H    -1.96252463     0.18055110    -1.11553251
H    -0.64817101     0.60551214    -1.85838248
H    -0.61916040    -0.90138518    -1.78179024
H     1.95277381    -0.89844358    -1.96237309
H     2.22657099     0.95422633    -1.88047108
H     3.13026586    -0.06293389    -0.66476574
