10
ANG Step:        332 Time:     6862.5715911375
N     0.12699863    -0.26463651    -1.08106516
N     1.17505572     0.46117191    -1.29728893
C    -0.98499847    -0.04653567    -0.27436829
C     2.18634335    -0.13708416    -0.26634125
H    -0.59534619     0.04422896     0.62638689
H    -1.30179949     0.95068968    -0.57605169
H    -1.78964987    -0.68637573    -0.59241951
H     1.76548413    -0.28894072     0.67609908
H     2.25752319    -1.16159843    -0.63349943
H     3.06628836     0.59550222    -0.23460094
