10
ANG Step:         26 Time:      537.4303053300
N     0.01173665     0.01132762    -0.01793846
N     1.28117852     0.01218669    -0.02280308
C    -0.81930454     0.00143089    -1.26246608
C     2.00686923    -0.01643021    -1.27356909
H    -1.87507775    -0.11610682    -1.21097350
H    -0.73231976     0.88676227    -1.76221175
H    -0.40665236    -0.89593151    -1.97668990
H     1.68846216    -0.78469664    -1.81609041
H     1.95242846     0.91489253    -1.74114147
H     3.06942701    -0.15543617    -0.94712209
