10
ANG Step:        560 Time:    11575.4219609548
N     0.16834952    -0.08399801    -1.11239640
N     1.10151031     0.49479197    -0.64603372
C    -1.08029393    -0.05404033    -0.40003447
C     2.26695547    -0.28041332    -0.69365531
H    -0.95658246     0.63754406     0.27278740
H    -1.80751726     0.34198829    -1.09889629
H    -1.03472108    -1.01495707     0.09926864
H     3.11769138     0.07393882    -0.14998883
H     2.11490954    -1.15870779    -0.11734350
H     2.58919290    -0.60663480    -1.76968857
