10
ANG Step:        288 Time:     5953.0741513482
N     0.13262608    -0.58877815    -1.16469375
N     1.11718869     0.10946461    -1.26796125
C    -0.86151668     0.13009164    -0.33253396
C     2.08623143     0.29747891    -0.18499083
H    -1.01214829     1.18299418    -0.60684757
H    -1.68366333    -0.47858709    -0.58250617
H    -0.66026346    -0.00948523     0.78035642
H     2.44974604    -0.75744273     0.04315442
H     3.02915440     0.94563805    -0.54948288
H     1.72820131     0.68365362     0.66032997
