10
ANG Step:        534 Time:    11037.9916556247
N     0.08255123    -0.26006082    -0.38117150
N     1.13517276    -0.01850087    -1.02769015
C    -1.22245461     0.35751384    -0.63985481
C     2.48177618    -0.09160100    -0.71312547
H    -0.85843704     1.27714867    -1.19117117
H    -1.66514566    -0.15514728    -1.49778454
H    -2.06010258     0.21388293    -0.03084453
H     3.15138276    -0.05794310    -1.65869618
H     2.76762607     0.64168508     0.29888405
H     2.55611129    -1.21824096    -0.45051311
