10
ANG Step:        284 Time:     5870.3925659128
N     0.08852424     0.06270484    -1.24916205
N     1.26790982     0.42925023    -1.17320110
C    -0.90358240    -0.11949861    -0.26163602
C     2.02890924    -0.30233070    -0.28377976
H    -0.54459921    -0.96258328     0.38797438
H    -1.05262355     0.82238319     0.31291473
H    -1.80562074    -0.41341117    -0.60696080
H     1.82058228    -0.31913959     0.75178206
H     2.11795290    -1.29283038    -0.78222550
H     3.01839872     0.35082782    -0.12772189
