10
ANG Step:         24 Time:      496.0895126123
N    -0.01086209    -0.03123352     0.06546049
N     1.17911669     0.02693109    -0.13987690
C    -0.76270194    -0.01480913    -1.27477477
C     2.06116301    -0.00242532    -1.25639557
H    -1.68328070     0.28150760    -0.93360537
H    -0.06514284     0.83812336    -1.85175803
H    -0.79294512    -0.94169054    -1.74573155
H     1.67030423    -0.91873986    -1.70635191
H     1.90392552     0.89404496    -1.88445425
H     3.07552137     0.10924161    -0.92231705
