10
ANG Step:        536 Time:    11079.3324483424
N     0.08866151    -0.25254214    -0.37164802
N     1.12362052    -0.01241192    -1.03370485
C    -1.22431167     0.35673533    -0.64679315
C     2.49027624    -0.10103500    -0.71073259
H    -0.92607170     1.26259676    -1.19324483
H    -1.63600314    -0.13765900    -1.56837978
H    -2.03895290     0.16190460     0.04689035
H     3.19461369    -0.05582840    -1.65517132
H     2.76862435     0.62631370     0.27216101
H     2.52575705    -1.22341422    -0.42700580
