10
ANG Step:        428 Time:     8846.9296415869
N     0.09119434    -0.21725569    -1.18761232
N     1.16401038     0.28686394    -0.85937011
C    -1.18833820    -0.00571615    -0.42253169
C     2.40061724    -0.01257797    -0.43435642
H    -1.35184535    -0.71274370     0.46707094
H    -1.21501682     0.95255705     0.19633296
H    -1.87760611    -0.40936071    -1.10676769
H     2.94676823     0.81858657     0.02773069
H     2.40723133    -1.00775358     0.03293764
H     3.01286798    -0.39259466    -1.19134326
