10
ANG Step:        464 Time:     9591.0639105054
N     0.01665364    -0.50065054    -0.56436918
N     1.11013036    -0.26411619    -1.06020480
C    -1.09449158     0.52774075    -0.55489927
C     2.40783643     0.10411313    -0.61386130
H    -0.98928854     1.06385021    -1.54653439
H    -1.84100319    -0.08616338    -0.99486944
H    -1.05967330     1.26140242     0.24344372
H     2.76422391     0.73632014    -1.32062789
H     2.59456338     0.83917913     0.37042246
H     3.04231874    -0.71484641    -0.47843500
