10
ANG Step:        298 Time:     6159.7781149367
N     0.04261673    -0.58732707    -1.14899491
N     1.16454925     0.14003705    -1.19516449
C    -0.88134259     0.06820997    -0.38546135
C     2.19075254     0.30507927    -0.25010366
H    -0.94203201     1.17994876    -0.54339557
H    -1.96797580    -0.26775519    -0.54977738
H    -0.91131012    -0.25750629     0.64912587
H     2.61408198    -0.59328452     0.21411065
H     3.00365454     0.82248357    -0.54974184
H     1.63866870     0.88427254     0.70054844
