10
ANG Step:        192 Time:     3968.7161008988
N     0.00550673    -0.35766710    -1.37352483
N     1.16102356     0.34801627    -1.16717027
C    -0.90628241     0.11997752    -0.20887849
C     2.21136747    -0.10715912    -0.23985671
H    -0.30428884     0.15140579     0.67218055
H    -1.26731408     1.11830137    -0.37508663
H    -1.59594253    -0.74921000    -0.10257390
H     2.91033173    -0.80393684    -0.61196648
H     2.59285158     0.76028972     0.16869195
H     1.71756987    -0.49869942     0.67417254
