10
ANG Step:        390 Time:     8061.4545799507
N    -0.00620365    -0.68107193    -0.65356691
N     1.06035729    -0.23091474    -1.14845884
C    -0.79468406     0.49424648    -0.53760230
C     2.16314041     0.23182149    -0.51892727
H    -1.02198875     0.99913204    -1.54778892
H    -1.73768238     0.46106069     0.01844439
H    -0.15698285     1.52904444    -0.19683503
H     2.88977438     0.80685132    -1.20019640
H     2.08665607     0.77870687     0.30663170
H     2.80367912    -0.55126521     0.02220955
