10
ANG Step:        106 Time:     2191.0620140379
N     0.10814195    -0.37439845    -0.66714220
N     1.20417447     0.39682759    -0.53447517
C    -1.32432216     0.12154013    -0.76903421
C     2.47908655    -0.13006811    -0.79160322
H    -1.80559585     0.12285729     0.11522425
H    -1.06032074     1.02088406    -1.21851328
H    -1.88148940    -0.66691311    -1.39300365
H     2.46026393    -0.78972148    -1.57117044
H     3.14358324     0.63744181    -1.01095631
H     2.96100379    -0.53754437     0.13860965
