10
ANG Step:        290 Time:     5994.4149440659
N     0.10076496    -0.17151648    -1.12681107
N     1.29415532     0.40140731    -1.32939782
C    -1.02757870    -0.03042866    -0.20296527
C     2.14520576    -0.15864321    -0.28874846
H    -0.48813882     0.15561472     0.62061323
H    -1.73266342     0.74490174    -0.44816402
H    -1.49943812    -1.01116417    -0.37301908
H     1.57965543    -0.66739549     0.43988896
H     2.68906953    -0.99275011    -0.60147662
H     2.56089151     0.82571136     0.12662287
