10
ANG Step:        496 Time:    10252.5165939885
N     0.00477190    -0.16618892    -0.03846545
N     1.24159812     0.08460557    -0.11934736
C    -0.84523775     0.10698884    -1.17469960
C     2.08612242    -0.05123001    -1.29293845
H    -1.71691349    -0.22714160    -0.84481741
H    -0.94736615     1.18937419    -1.28223560
H    -0.46611395    -0.25624856    -2.05436291
H     2.14591962    -1.06014209    -1.38227853
H     1.66817486     0.36641963    -2.19036201
H     3.02461377     0.45258933    -0.89448980
