10
ANG Step:        358 Time:     7400.0018964675
N    -0.06617380    -0.63084389    -0.76160162
N     1.15157285    -0.27408052    -1.17552134
C    -1.01485385     0.56112807    -0.48429799
C     2.40451050     0.20720263    -0.45859206
H    -1.57917065     0.60323445    -1.38467736
H    -1.54270539     0.24250125     0.36505546
H    -0.68187016     1.48119182    -0.07669541
H     3.04334257     0.46926612    -1.28132739
H     1.99878202     1.12054679     0.18973191
H     2.93823984    -0.49452776     0.11429526
