10
ANG Step:        420 Time:     8681.5664707161
N     0.01346530    -0.65043955    -0.60028553
N     1.08195190    -0.35810053    -1.18585611
C    -0.89033525     0.60468104    -0.53234528
C     2.26102604     0.23156553    -0.53169081
H    -1.02429177     1.21115809    -1.54110745
H    -1.86544108     0.26599605    -0.34393899
H    -0.31773289     1.23939182    -0.00043591
H     2.69312592     1.01461020    -1.08768596
H     1.88239542     0.83460372     0.42526841
H     2.89572154    -0.51258232    -0.18087576
