10
ANG Step:        248 Time:     5126.2582969943
N    -0.03955318     0.06028317    -1.39430235
N     1.16641751     0.36640040    -1.06190767
C    -0.99591069    -0.05026694    -0.24208190
C     2.37056495    -0.31218929    -0.24888228
H    -0.75531354    -1.04505550     0.42692203
H    -1.03310536     0.85344350     0.20400906
H    -1.93730039    -0.19091536    -0.69567043
H     1.86861284    -0.51666387     0.73333076
H     2.53252229    -1.19972369    -0.84149931
H     3.09981056     0.48406433    -0.06949294
