10
ANG Step:        412 Time:     8516.2032998453
N     0.02302107     0.18476717    -1.33825838
N     1.14570315     0.65181077    -0.80868371
C    -0.83776865    -0.19428997    -0.29191763
C     2.14916431    -0.51700654    -0.49296186
H    -1.30201276     0.58271845     0.14046040
H    -1.65900466    -0.92490797    -0.48246311
H    -0.31055209    -0.91460804     0.53944640
H     2.36848160    -0.23813476     0.55727555
H     1.77177816    -1.44343702    -0.79211985
H     3.07552449    -0.21772400    -1.00472514
