10
ANG Step:        580 Time:    11988.8298881317
N     0.15520271     0.06667803    -0.36076378
N     1.16512769     0.05831220    -1.09516636
C    -1.25742053     0.15238647    -0.61836549
C     2.42831625    -0.26792194    -0.68053384
H    -1.41916942     1.22207213    -0.72229873
H    -1.37033022     0.05131552    -1.81491617
H    -1.98807754    -0.49375215    -0.22694728
H     3.07122815    -0.39023943    -1.63462888
H     2.85511917     0.57941064     0.11403853
H     2.37028084    -1.33270662    -0.23519790
