10
ANG Step:        318 Time:     6573.1860421136
N     0.13873969    -0.05155850    -1.23752861
N     1.25468500     0.63937154    -1.21089332
C    -0.91688246    -0.10950071    -0.24730610
C     2.05076782    -0.38249182    -0.31858071
H    -0.65070563    -0.80329169     0.49694633
H    -1.24334389     0.83516591     0.41727646
H    -1.86825799    -0.60348256    -0.67004682
H     1.69497823    -0.07106874     0.72809420
H     1.93141429    -1.43270071    -0.40608852
H     3.07403352    -0.23578440    -0.02451084
