10
ANG Step:        110 Time:     2273.7435994733
N     0.04517958    -0.16188532    -0.15524090
N     1.14133023     0.33727405    -0.30386044
C    -1.08366429     0.05899305    -1.05074827
C     2.37661105    -0.21143211    -1.13457872
H    -1.97299896    -0.47431999    -0.55937567
H    -1.13589102     1.26883339    -1.61390803
H    -0.78333518    -0.63379299    -1.88861702
H     2.00260031    -1.03011927    -1.61780682
H     2.74051745     0.68879052    -1.68304077
H     3.07024044    -0.44380051    -0.45419237
