10
ANG Step:        108 Time:     2232.4028067556
N     0.07451401    -0.28657018    -0.35836582
N     1.17372808     0.34353210    -0.42768077
C    -1.19477642     0.13105743    -0.95110007
C     2.44647062    -0.18590165    -0.97695096
H    -1.85750129    -0.11175893    -0.20996187
H    -1.37054237     1.36405796    -1.04288444
H    -1.49550414    -0.38814577    -1.92569889
H     2.43500148    -1.28705082    -0.91546472
H     2.74293976     0.24165937    -1.97081014
H     3.09887000     0.04052356    -0.27265245
