10
ANG Step:        154 Time:     3183.2410392626
N     0.00675778    -0.28751429    -1.04885250
N     1.20599381     0.31405536    -0.95983475
C    -1.25093834     0.09572881    -0.45858168
C     2.48163940    -0.13591572    -0.44476658
H    -0.98079957     0.17766130     0.65658482
H    -1.36112308     1.09533350    -0.60876269
H    -1.88275875    -0.69964767    -0.63374696
H     3.00427231    -0.76207942    -1.21057976
H     2.98721521     0.82321225    -0.32081770
H     2.52986336    -0.52788317     0.56434837
