10
ANG Step:        542 Time:    11203.3548264955
N    -0.06085100    -0.26589528    -0.01235691
N     1.13996084     0.23447054    -0.41845743
C    -1.11009754     0.18127132    -1.01712222
C     2.49406024    -0.16788391    -1.21911576
H    -1.91824928    -0.39344695    -0.74762537
H    -1.36827258     1.18256792    -0.91111940
H    -0.87104158     0.08760634    -2.13664742
H     2.85307237    -1.11709085    -0.92936354
H     2.51103561     0.00593198    -2.30247112
H     3.12213676     0.50664766    -0.58400101
