10
ANG Step:        406 Time:     8392.1809216922
N    -0.00486872    -0.30461258    -0.19164022
N     1.19628734     0.23424353    -0.10132482
C    -1.03877568     0.09836585    -1.10319992
C     2.35163379    -0.07282834    -1.24695876
H    -2.07953456     0.35099437    -0.59200278
H    -0.70450688     1.01911682    -1.55385165
H    -0.97241911    -0.64633780    -1.72182857
H     1.89037330    -0.94261416    -1.76559238
H     2.19600187     0.89668227    -1.70000102
H     3.28493705    -0.00853048    -0.83501239
