10
ANG Step:        154 Time:     3183.2410392626
N     0.08917081    -0.36975549    -0.71719182
N     1.13093645     0.33041938    -0.49238715
C    -1.25164347     0.14086614    -0.75021877
C     2.50684415    -0.13573187    -0.77721575
H    -1.44960359     0.54593402     0.28681089
H    -1.48684552     0.92969559    -1.50294733
H    -1.74665650    -0.46295546    -1.29207079
H     2.68495850    -1.14494053    -0.87973316
H     2.85481295     0.27744802    -1.80409142
H     3.04476941     0.33792102    -0.03183781
