10
ANG Step:        174 Time:     3596.6489664395
N     0.09836005    -0.24319050    -0.47286893
N     1.15007944     0.50053808    -0.67750972
C    -1.14370999     0.12631532    -0.80571930
C     2.42365716    -0.30931048    -0.79202143
H    -1.72944865    -0.75499393    -0.27976437
H    -1.98483756     0.86518160    -0.35917754
H    -1.45207939    -0.07356376    -1.89569029
H     2.36052857    -1.04159733    -1.50491640
H     3.28839475     0.26414012    -1.25049099
H     2.73343499    -0.65856071     0.08182852
