10
ANG Step:        596 Time:    12319.5562298733
N     0.03373169     0.16420370    -1.37014899
N     0.99650194     0.42911661    -0.64563412
C    -0.89283433    -0.24210902    -0.47215597
C     2.31058197    -0.23737897    -0.43756425
H    -0.57494326    -1.06688174     0.06312553
H    -1.10808007     0.47791621     0.35663526
H    -1.85329648    -0.65839444    -0.85689238
H     2.59535437    -0.39764355    -1.39956600
H     3.19801060     0.28405980     0.11418022
H     2.34320552    -1.17543851     0.34327174
