10
ANG Step:        490 Time:    10128.4942158354
N    -0.03410082     0.26567456    -1.08618850
N     1.27183634     0.45659381    -0.98808935
C    -1.12883068    -0.18182486    -0.33991951
C     2.38987998    -0.41204307    -0.48476275
H    -1.65696057     0.34848803     0.53460252
H    -2.03554570    -0.57191281    -0.90314207
H    -0.73970188    -1.05444740     0.01362726
H     2.85372460     0.16807666     0.30314894
H     2.11104049    -1.44657117    -0.28574066
H     3.05161520    -0.40952571    -1.24061729
