10
ANG Step:        150 Time:     3100.5594538272
N     0.01766119    -0.29104353    -1.01050166
N     1.17653658     0.32495241    -0.93076776
C    -1.26326465     0.10845977    -0.48536539
C     2.52628512    -0.14413372    -0.47470859
H    -1.05077837     0.07569689     0.53241458
H    -1.42287125     1.10541148    -0.70425035
H    -1.98286865    -0.71741568    -0.64844574
H     2.98748989    -0.73921382    -1.19523990
H     3.01765214     0.74806442    -0.37091800
H     2.62101737    -0.52203297     0.57221588
