10
ANG Step:        172 Time:     3555.3081737218
N     0.05674329    -0.36323951    -0.76465597
N     1.15131106     0.25895576    -1.02592871
C    -1.28583202     0.11516091    -0.64723386
C     2.55329452    -0.01328496    -0.44044894
H    -1.91187073    -0.62350143    -1.20856017
H    -1.49687725     0.04898666     0.48470023
H    -1.59317458     1.13037883    -0.58048291
H     2.88975624    -0.93814527    -0.83985327
H     3.26121279     0.62030773    -1.01441667
H     2.77398478    -0.00424385     0.77158799
