10
ANG Step:         62 Time:     1281.5645742486
N     0.01595563    -0.13501706    -0.19127399
N     1.26272305     0.15972570    -0.02535900
C    -1.02240909     0.02518204    -1.24857105
C     2.26377188    -0.04764850    -1.16548100
H    -1.93056925    -0.41767485    -0.73543309
H    -1.32688263     1.05882218    -1.27741589
H    -0.73156627    -0.66393675    -2.06687596
H     1.79071945    -0.70590643    -1.74448669
H     2.15224688     1.00607669    -1.80366572
H     3.29929013    -0.35551284    -0.83500306
