10
ANG Step:        498 Time:    10293.8573867062
N    -0.06002304     0.18097901    -0.14103677
N     1.04065825     0.24364666    -0.79486928
C    -1.04573482    -0.43586885    -1.00758943
C     2.48533841     0.08633040    -0.75024702
H    -0.49748212    -1.28800432    -1.30913199
H    -1.89676969    -0.62216110    -0.60758328
H    -1.01400254     0.31607045    -1.82246196
H     2.79153425    -0.72584589    -0.14661553
H     2.57764453    -0.32826817    -1.91542853
H     3.07015554     0.90856610    -0.48257875
