10
ANG Step:        162 Time:     3348.6042101333
N     0.07536019    -0.37752907    -0.72836264
N     1.13751916     0.29819045    -0.91274974
C    -1.27018173     0.10512638    -0.68313862
C     2.54581508    -0.03854139    -0.50050744
H    -1.89266089    -0.60927666    -1.15481714
H    -1.55227115     0.16205053     0.32465577
H    -1.61416097     1.16840941    -0.94244628
H     2.83041756    -1.10268947    -0.86628877
H     3.14613976     0.71320406    -1.11498180
H     2.84130339    -0.02432390     0.43268086
