10
ANG Step:        220 Time:     4547.4871989465
N     0.13871274    -0.38871184    -0.96748053
N     1.27805355     0.13021957    -1.39263943
C    -1.08164520     0.15099275    -0.38176098
C     2.16851184     0.10505007    -0.21047523
H    -1.82877836     0.12167529    -1.06946894
H    -1.33831720    -0.67023140     0.43143899
H    -1.11415371     0.99639344     0.26499355
H     2.85241244    -0.93579348    -0.30142715
H     2.86232521     0.76490086    -0.45687138
H     1.73963527     0.26390216     0.75829143
