          10
ANG Step:          0 Time:        0.0000000000
N         -0.0128755430        -0.0215645904        -0.0059977633
N          1.2556543664         0.0130373548         0.0171546551
C         -0.7100475019        -0.0249002483        -1.2854546157
C          1.9659460254         0.0115604582        -1.2579997909
H         -1.7562635147         0.3495676006        -1.0492752603
H         -0.1206672523         0.6341087627        -2.0484855041
H         -0.7965851579        -0.9856371712        -1.9361924283
H          1.5918499499        -0.7225279030        -1.8104469005
H          1.6253907201         1.0825929241        -1.8028775497
H          3.0356507116        -0.0832126504        -1.4396378145
          10
ANG Step:          1 Time:       20.6703963588
N         -0.0096268807        -0.0225258801        -0.0095227139
N          1.2526903084         0.0141532309         0.0154909495
C         -0.7096812248        -0.0258913347        -1.2852767767
C          1.9612800894         0.0124164986        -1.2557743726
H         -1.7736606586         0.3401801758        -1.0210832953
H         -0.0991551725         0.6589449078        -2.0454412132
H         -0.7898056333        -0.9920073732        -1.9351980529
H          1.5869597768        -0.7070470001        -1.7975312218
H          1.6331179319         1.0678187717        -1.8056264405
H          3.0691535647        -0.0935362537        -1.4385603929
          10
ANG Step:          2 Time:       41.3407927177
N         -0.0063180951        -0.0235870950        -0.0132169355
N          1.2499351486         0.0152026899         0.0137911274
C         -0.7096431654        -0.0266434539        -1.2855421011
C          1.9570386899         0.0146137248        -1.2535525218
H         -1.7859487180         0.3293688939        -0.9957437042
H         -0.0834898569         0.6812189685        -2.0373686668
H         -0.7825082771        -0.9955491138        -1.9289302422
H          1.5767610685        -0.7010531534        -1.7918852105
H          1.6444948849         1.0462041706        -1.8050900655
H          3.0996503310        -0.1028782620        -1.4327750127
          10
ANG Step:          3 Time:       62.0111890765
N         -0.0030094335        -0.0247547183        -0.0170684704
N          1.2474456442         0.0161974587         0.0120827515
C         -0.7099458101        -0.0271076781        -1.2862061650
C          1.9534404714         0.0180897330        -1.2513329090
H         -1.7924665673         0.3170639292        -0.9738221520
H         -0.0743896652         0.7003238511        -2.0242161784
H         -0.7747243518        -0.9960804864        -1.9176387466
H          1.5613412392        -0.7049255456        -1.7937314157
H          1.6593041676         1.0185836529        -1.8013912184
H          3.1249533043        -0.1111114199        -1.4222664883
          10
ANG Step:          4 Time:       82.6815854354
N          0.0002394744        -0.0260340615        -0.0210617076
N          1.2452760794         0.0171506179         0.0103929966
C         -0.7105881217        -0.0272442884        -1.2872016019
C          1.9505811908         0.0226074673        -1.2491897590
H         -1.7929219889         0.3033184020        -0.9557587535
H         -0.0723042552         0.7158635171        -2.0061808079
H         -0.7665093118        -0.9936539701        -1.9017554070
H          1.5417374215        -0.7173705227        -1.8020245751
H          1.6771650196         0.9862313043        -1.7948907687
H          3.1435407732        -0.1181663550        -1.4071630195
          10
ANG Step:          5 Time:      103.3519817942
N          0.0033720353        -0.0274292691        -0.0251766245
N          1.2434769579         0.0180763519         0.0087465874
C         -0.7115571531        -0.0270185081        -1.2884425230
C          1.9484720926         0.0277869845        -1.2472291058
H         -1.7873628433         0.2882894803        -0.9418623092
H         -0.0774337561         0.7276361080        -1.9836665999
H         -0.7579369435        -0.9885740176        -1.8818968708
H          1.5196458005        -0.7359500221        -1.8148749934
H          1.6974930902         0.9510028918        -1.7862992877
H          3.1544192400        -0.1240174108        -1.3876961060
          10
ANG Step:          6 Time:      124.0223781531
N          0.0063370808        -0.0289431944        -0.0293884396
N          1.2420936972         0.0189896632         0.0071636888
C         -0.7128298577        -0.0263988260        -1.2898270804
C          1.9470884398         0.0331589567        -1.2455269385
H         -1.7761704241         0.2722260734        -0.9322995336
H         -0.0897278807         0.7356390768        -1.9572699357
H         -0.7490912910        -0.9814156588        -1.8588643893
H          1.4969724717        -0.7578561891        -1.8301573158
H          1.7194711520         0.9154745432        -1.7768039266
H          3.1570149225        -0.1286757019        -1.3641720058
          10
ANG Step:          7 Time:      144.6927745119
N          0.0090909822        -0.0305771360        -0.0336677367
N          1.2411652113         0.0199061225         0.0056584603
C         -0.7143748002        -0.0253590359        -1.2912392588
C          1.9464037545         0.0382120014        -1.2440835705
H         -1.7600766648         0.2554615560        -0.9270764023
H         -0.1088668669         0.7400998410        -1.9277883473
H         -0.7400559087        -0.9730317310        -1.8336328753
H          1.4754704344        -0.7805055302        -1.8459693561
H          1.7420657277         0.8829814880        -1.7681485004
H          3.1511105034        -0.1321892972        -1.3369537625
          10
ANG Step:          8 Time:      165.3631708708
N          0.0115992919        -0.0323304592        -0.0379811208
N          1.2407222269         0.0208416118         0.0042388358
C         -0.7161536059        -0.0238854646        -1.2925510564
C          1.9463977289         0.0424370653        -1.2428149240
H         -1.7402010195         0.2384083219        -0.9260116458
H         -0.1342284765         0.7415342931        -1.8962476222
H         -0.7309007848        -0.9645286867        -1.8073190322
H          1.4565605833        -0.8018137870        -1.8608329743
H          1.7641359971         0.8573782387        -1.7625412076
H          3.1368296960        -0.1346498822        -1.3064495297
          10
ANG Step:          9 Time:      186.0335672296
N          0.0138377351        -0.0342001665        -0.0422924294
N          1.2407852851         0.0218119535         0.0029077071
C         -0.7181220509        -0.0219906060        -1.2936261667
C          1.9470390804         0.0453913018        -1.2415882140
H         -1.7180944915         0.2215491740        -0.9287067352
H         -0.1648495148         0.7408300446        -1.8639377305
H         -0.7216688889        -0.9571864673        -1.7811191944
H          1.4413010067        -0.8202349633        -1.8737042998
H          1.7846559166         0.8423364847        -1.7622413975
H          3.1146690184        -0.1362054454        -1.2731027194
          10
ANG Step:         10 Time:      206.7039635885
N          0.0157924717        -0.0361804954        -0.0465644383
N          1.2413625562         0.0228324009         0.0016651564
C         -0.7202307401        -0.0197323237        -1.2943259932
C          1.9482551231         0.0467861420        -1.2402930038
H         -1.6957641772         0.2054182680        -0.9345238331
H         -0.1994013300         0.7393356597        -1.8324380846
H         -0.7123666253        -0.9523049818        -1.7562150366
H          1.4304311280        -0.8346914072        -1.8838967414
H          1.8029806350         0.8402500705        -1.7688296414
H          3.0855748436        -0.1370773831        -1.2373796403
          10
ANG Step:         11 Time:      227.3743599473
N          0.0174596383        -0.0382626200        -0.0507609149
N          1.2424478511         0.0239171413         0.0005108883
C         -0.7224254130        -0.0172328041        -1.2945183362
C          1.9499066369         0.0465592823        -1.2389112784
H         -1.6756315738         0.1905625417        -0.9425928250
H         -0.2362186794         0.7389051167        -1.8035956207
H         -0.7029640147        -0.9509859647        -1.7336603520
H          1.4244356235        -0.8444779033        -1.8909878201
H          1.8189936126         0.8513037605        -1.7825168515
H          3.0510565864        -0.1375779159        -1.1997491514
          10
ANG Step:         12 Time:      248.0447563062
N          0.0188443055        -0.0404345188        -0.0548487752
N          1.2440193117         0.0250790380        -0.0005540344
C         -0.7246473593        -0.0146844784        -1.2940887104
C          1.9517817633         0.0448739272        -1.2375397301
H         -1.6603605702         0.1774762437        -0.9518759291
H         -0.2734391907         0.7418032173        -1.7794021696
H         -0.6934089296        -0.9539006521        -1.7142782877
H          1.4235999916        -0.8491766019        -1.8947435605
H          1.8330238279         0.8734082491        -1.8020105391
H          3.0133059183        -0.1381211677        -1.1606468268
          10
ANG Step:         13 Time:      268.7151526650
N          0.0199590377        -0.0426810719        -0.0587999889
N          1.2460390999         0.0263296831        -0.0015264329
C         -0.7268356447        -0.0123269021        -1.2929540550
C          1.9536087992         0.0420411983        -1.2363548245
H         -1.6525031023         0.1665110636        -0.9613105233
H         -0.3092926714         0.7503606943        -1.7617252194
H         -0.6836538164        -0.9611252749        -1.6986024195
H          1.4280467525        -0.8485971422        -1.8950718603
H          1.8456162405         0.9030553112        -1.8250407481
H          2.9752502961        -0.1392187339        -1.1204177579
          10
ANG Step:         14 Time:      289.3855490239
N          0.0208222993        -0.0449844274        -0.0625928427
N          1.2484540564         0.0276795918        -0.0024008082
C         -0.7289347127        -0.0103889754        -1.2910773135
C          1.9550848685         0.0384210412        -1.2355566373
H         -1.6539867567         0.1577838742        -0.9700135690
H         -0.3424873427         0.7663584316        -1.7519154282
H         -0.6736859352        -0.9721128562        -1.6868780119
H          1.4377486862        -0.8427494334        -1.8920067819
H          1.8573268352         0.9364296108        -1.8491099020
H          2.9404108827        -0.1414445802        -1.0792496305
          10
ANG Step:         15 Time:      310.0559453827
N          0.0214568500        -0.0473246095        -0.0662123592
N          1.2511972184         0.0291383097        -0.0031691936
C         -0.7309106233        -0.0090172101        -1.2884778461
C          1.9559266925         0.0343515821        -1.2353249347
H         -1.6656036251         0.1511227460        -0.9774731132
H         -0.3725075767         0.7903529441        -1.7504387697
H         -0.6635492269        -0.9858081956        -1.6791119286
H          1.4525183616        -0.8318536457        -1.8857231773
H          1.8686189676         0.9701692585        -1.8720234424
H          2.9124151608        -0.1453481379        -1.0371490965
          10
ANG Step:         16 Time:      330.7263417416
N          0.0218882038        -0.0496802678        -0.0696499785
N          1.2541902115         0.0307143198        -0.0038210299
C         -0.7327724734        -0.0082317557        -1.2852305299
C          1.9559461305         0.0301169486        -1.2357892489
H         -1.6867484923         0.1460873697        -0.9836263672
H         -0.3996207330         0.8213442602        -1.7567453166
H         -0.6533505063        -1.0008479122        -1.6751425433
H          1.4719752235        -0.8163896838        -1.8765813312
H          1.8798354706         1.0016537321        -1.8920950126
H          2.8941527519        -0.1513097297        -0.9940483504
          10
ANG Step:         17 Time:      351.3967381004
N          0.0221431719        -0.0520294535        -0.0729027989
N          1.2573467307         0.0324147622        -0.0043434783
C         -0.7345861121        -0.0079372482        -1.2814516025
C          1.9551259727         0.0259434726        -1.2370008059
H         -1.7155630686         0.1420633339        -0.9887796368
H         -0.4245856527         0.8570299574        -1.7694636883
H         -0.6432506973        -1.0157680649        -1.6747045020
H          1.4954956197        -0.7971856502        -1.8652005407
H          1.8912029435         1.0289871518        -1.9081373180
H          2.8868977745        -0.1593870362        -0.9500705574
          10
ANG Step:         18 Time:      372.0671344593
N          0.0222485952        -0.0543503523        -0.0759726047
N          1.2605771503         0.0342450351        -0.0047225881
C         -0.7364687328        -0.0079743046        -1.2772781878
C          1.9536499032         0.0220162633        -1.2389072773
H         -1.7494063936         0.1383881021        -0.9934257843
H         -0.4482710383         0.8944664856        -1.7867915628
H         -0.6334471496        -1.0291681131        -1.6774771645
H          1.5221594249        -0.7755360038        -1.8525538492
H          1.9028461956         1.0508610332        -1.9193681937
H          2.8899513026        -0.1692514781        -0.9058143473
          10
ANG Step:         19 Time:      392.7375308181
N          0.0222303822        -0.0566219595        -0.0788647826
N          1.2637937327         0.0362083603        -0.0049452627
C         -0.7385669367        -0.0081749795        -1.2728506811
C          1.9518634100         0.0185091190        -1.2413452066
H         -1.7854082027         0.1344574149        -0.9980617084
H         -0.4713897330         0.9307378916        -1.8068695299
H         -0.6241535820        -1.0398170616        -1.6831167807
H          1.5507206188        -0.7533163067        -1.8400579913
H          1.9148065894         1.0664041563        -1.9253073328
H          2.9010652515        -0.1802727474        -0.8624312587
          10
ANG Step:         20 Time:      413.4079271770
N          0.0221128748        -0.0588246871        -0.0815871894
N          1.2669153637         0.0383054246        -0.0050013719
C         -0.7410310474        -0.0083976636        -1.2683021273
C          1.9501913127         0.0156125274        -1.2440588204
H         -1.8208963831         0.1297853804        -1.0030726012
H         -0.4944015526         0.9633750685        -1.8280168709
H         -0.6155820745        -1.0467100115        -1.6912766872
H          1.5796471350        -0.7330151324        -1.8295979192
H          1.9270618723         1.0750649261        -1.9256938864
H          2.9173141628        -0.1916965048        -0.8214322707
          10
ANG Step:         21 Time:      434.0783235358
N          0.0219184859        -0.0609408769        -0.0841490455
N          1.2698707844         0.0405342216        -0.0048851801
C         -0.7439960474        -0.0085388037        -1.2637536886
C          1.9490541876         0.0135380209        -1.2467413037
H         -1.8536290432         0.1240208839        -1.0086895900
H         -0.5175283599         0.9905072054        -1.8488271489
H         -0.6079289932        -1.0490906149        -1.7016200002
H          1.6072861135        -0.7175482415        -1.8233823513
H          1.9395451459         1.0765397457        -1.9204327818
H          2.9358722958        -0.2028069591        -0.7843780508
          10
ANG Step:         22 Time:      454.7487198947
N          0.0216675212        -0.0629551970        -0.0865599353
N          1.2725999295         0.0428901896        -0.0045956307
C         -0.7475718566        -0.0085299406        -1.2593136535
C          1.9488046976         0.0124827864        -1.2490926364
H         -1.8818675775         0.1169368511        -1.0149950148
H         -0.5408116581         1.0108443853        -1.8681748002
H         -0.6013648061        -1.0464538953        -1.7138281907
H          1.6321783475        -0.7097262362        -1.8235278675
H          1.9521613741         1.0707483868        -1.9095699181
H          2.9544293957        -0.2130139082        -0.7526323001
          10
ANG Step:         23 Time:      475.4191162535
N          0.0213781665        -0.0648549277        -0.0888289924
N          1.2750536627         0.0453666419        -0.0041356451
C         -0.7518406565        -0.0083288760        -1.2550779143
C          1.9496871060         0.0125600425        -1.2508851416
H         -1.9043597736         0.1084084217        -1.0219475268
H         -0.5641714620         1.0235912813        -1.8851822667
H         -0.5960265531        -1.0385404792        -1.7276079379
H          1.6534340676        -0.7114323764        -1.8314094423
H          1.9648011048         1.0578540378        -1.8932958320
H          2.9712896855        -0.2218708164        -0.7272433738
          10
ANG Step:         24 Time:      496.0895126123
N          0.0210666290        -0.0666301622        -0.0909643604
N          1.2771926494         0.0479553576        -0.0035111177
C         -0.7568578085        -0.0079103869        -1.2511306518
C          1.9518245024         0.0137314310        -1.2520121951
H         -1.9202904332         0.0983900576        -1.0294093917
H         -0.5874515321         1.0283537175        -1.8991787424
H         -0.5920113160        -1.0253292717        -1.7426978841
H          1.6709557210        -0.7229044710        -1.8470843207
H          1.9773520401         1.0383263009        -1.8719791215
H          2.9853035678        -0.2290578829        -0.7089275084
          10
ANG Step:         25 Time:      516.7599089712
N          0.0207473814        -0.0682739507        -0.0929730032
N          1.2789861371         0.0506471321        -0.0027303741
C         -0.7626536472        -0.0072589469        -1.2475445312
C          1.9552371004         0.0157861979        -1.2524889245
H         -1.9292348272         0.0868959843        -1.0371681525
H         -0.6104497188         1.0250666419        -1.9096660136
H         -0.5893694342        -1.0070319594        -1.7588763282
H          1.6853389684        -0.7426232265        -1.8691970640
H          1.9897098419         1.0130475704        -1.8462315697
H          2.9957498910        -0.2343584151        -0.6981029614
          10
ANG Step:         26 Time:      537.4303053300
N          0.0204333976        -0.0697823988        -0.0948608769
N          1.2804110857         0.0534321572        -0.0018043901
C         -0.7692344429        -0.0063643211        -1.2443800032
C          1.9598793850         0.0183751649        -1.2524012619
H         -1.9311328349         0.0739847339        -1.0449506331
H         -0.6329367854         1.0139534048        -1.9162983542
H         -0.5880971855        -0.9840894818        -1.7759702185
H          1.6975292259        -0.7678870040        -1.8954458602
H          2.0017903884         0.9834629629        -1.8170029424
H          3.0022307398        -0.2376421978        -0.6949355193
          10
ANG Step:         27 Time:      558.1007016889
N          0.0201362675        -0.0711547187        -0.0966334255
N          1.2814517136         0.0563002433        -0.0007474664
C         -0.7765815815        -0.0052203521        -1.2416834437
C          1.9656738177         0.0210645867        -1.2518358793
H         -1.9262909549         0.0597466853        -1.0524300131
H         -0.6546676378         0.9955182190        -1.9188799645
H         -0.5881297848        -0.9571674791        -1.7938647903
H          1.7084738863        -0.7956391009        -1.9232661864
H          2.0135455183         0.9517586290        -1.7856890105
H          3.0046033469        -0.2388591902        -0.6993728000
          10
ANG Step:         28 Time:      578.7710980477
N          0.0198661200        -0.0723932242        -0.0982963278
N          1.2820993382         0.0592409612         0.0004222267
C         -0.7846485325        -0.0038272151        -1.2394840432
C          1.9725279214         0.0233768993        -1.2508285012
H         -1.9154127242         0.0442925175        -1.0592276926
H         -0.6753882409         0.9705708818        -1.9173824841
H         -0.5893366618        -0.9271444891        -1.8125114591
H          1.7189255337        -0.8230908395        -1.9503519169
H          2.0249806711         0.9210030407        -1.7542042666
H          3.0029556042        -0.2380430634        -0.7111576826
          10
ANG Step:         29 Time:      599.4414944066
N          0.0196313517        -0.0735032621        -0.0998564153
N          1.2823523913         0.0622437304         0.0016826738
C         -0.7933557504        -0.0021974270        -1.2377895492
C          1.9803360628         0.0248201442        -1.2493499743
H         -1.8996511524         0.0277399796        -1.0649122037
H         -0.6948407777         0.9402810224        -1.9119846428
H         -0.5915216750        -0.8950843475        -1.8319294975
H          1.7293933648        -0.8480028848        -1.9748889377
H          2.0361636042         0.8950913466        -1.7249214799
H          2.9976253542        -0.2353238430        -0.7298190397
          10
ANG Step:         30 Time:      620.1118907654
N          0.0194382008        -0.0744930686        -0.1013226281
N          1.2822165506         0.0652978120         0.0030087294
C         -0.8025846476        -0.0003654881        -1.2365812708
C          1.9889738061         0.0249348138        -1.2473346075
H         -1.8806651878         0.0101961636        -1.0689982960
H         -0.7127690960         0.9062546718        -1.9031338191
H         -0.5944312188        -0.8621843090        -1.8521953940
H          1.7401729949        -0.8687211160        -1.9955745450
H          2.0472016339         0.8782467473        -1.7003501878
H          2.9892629246        -0.2309490093        -0.7546425518
          10
ANG Step:         31 Time:      640.7822871243
N          0.0192902812        -0.0753735451        -0.1027068218
N          1.2817049687         0.0683921869         0.0043732988
C         -0.8121735465         0.0016002013        -1.2358092361
C          1.9982915004         0.0233809299        -1.2447433060
H         -1.8606421824        -0.0082664711        -1.0709512449
H         -0.7289263283         0.8706146621        -1.8916215640
H         -0.5977724555        -0.8296946839        -1.8734143083
H          1.7513969354        -0.8841036166        -2.0115377474
H          2.0581684852         0.8739408879        -1.6825169281
H          2.9789335714        -0.2253100329        -0.7846299965
          10
ANG Step:         32 Time:      661.4526834831
N          0.0191882399        -0.0761579621        -0.1040242447
N          1.2808386406         0.0715154128         0.0057484491
C         -0.8219209008         0.0035868401        -1.2353892924
C          2.0081087542         0.0200420054        -1.2416321867
H         -1.8422218783        -0.0276379450        -1.0702046882
H         -0.7430869474         0.8360438515        -1.8786469620
H         -0.6012416896        -0.7988147964        -1.8956722359
H          1.7630781042        -0.8934256303        -2.0222402696
H          2.0690054152         0.8835863469        -1.6722896683
H          2.9682410461        -0.2189643048        -0.8184668066
          10
ANG Step:         33 Time:      682.1230798420
N          0.0191296636        -0.0768616396        -0.1052935589
N          1.2796469364         0.0746556547         0.0071059132
C         -0.8316025383         0.0054348732        -1.2352055528
C          2.0182083876         0.0150731776        -1.2381802716
H         -1.8282421949        -0.0479909672        -1.0662037435
H         -0.7550666687         0.8057167967        -1.8658103845
H         -0.6045592133        -0.7705815096        -1.9189755842
H          1.7751385965        -0.8962983512        -2.0273966471
H          2.0794766420         0.9058785522        -1.6691155781
H          2.9594151598        -0.2126311348        -0.8545355907
          10
ANG Step:         34 Time:      702.7934762008
N          0.0191092787        -0.0775016816        -0.1065363458
N          1.2781680169         0.0778010019         0.0084169551
C         -0.8410065860         0.0069523407        -1.2351234845
C          2.0283353270         0.0088448846        -1.2346527502
H         -1.8212647856        -0.0694707096        -1.0584840273
H         -0.7647552372         0.7830201810        -1.8549492279
H         -0.6075034855        -0.7457741819        -1.9431932539
H          1.7874240177        -0.8926125391        -2.0269267204
H          2.0892320398         0.9373454998        -1.6713879324
H          2.9552477263        -0.2071318846        -0.8910264853
          10
ANG Step:         35 Time:      723.4638725597
N          0.0191193178        -0.0780968101        -0.1077761511
N          1.2764485136         0.0809400125         0.0096522191
C         -0.8499790113         0.0079511636        -1.2350180858
C          2.0382178956         0.0018203625        -1.2313244337
H         -1.8229666051        -0.0922317938        -1.0467827996
H         -0.7721657551         0.7709996129        -1.8477465777
H         -0.6099366542        -0.7248578812        -1.9680192938
H          1.7997055364        -0.8825126577        -2.0209433006
H          2.0979267161         0.9736342633        -1.6771240651
H          2.9587254525        -0.2032522245        -0.9261761663
          10
ANG Step:         36 Time:      744.1342689185
N          0.0191498021        -0.0786672391        -0.1090373243
N          1.2745419678         0.0840623274         0.0107822306
C         -0.8584593640         0.0082982440        -1.2348129478
C          2.0476245212        -0.0055559676        -1.2284061416
H         -1.8336497116        -0.1163291110        -1.0311488990
H         -0.7774928856         0.7716323268        -1.8451796676
H         -0.6118164127        -0.7079741067        -1.9929680614
H          1.8116723242        -0.8664065868        -2.0097744465
H          2.1053090840         1.0106419585        -1.6845034328
H          2.9722974162        -0.2015443142        -0.9585884315
          10
ANG Step:         37 Time:      764.8046652774
N          0.0191885574        -0.0792344349        -0.1103440785
N          1.2725061418         0.0871592173         0.0117786010
C         -0.8664855537         0.0079577918        -1.2345112606
C          2.0564390960        -0.0129168170        -1.2260010225
H         -1.8521475249        -0.1416142210        -1.0119957882
H         -0.7811509783         0.7852503084        -1.8470828395
H         -0.6131938594        -0.6949731836        -2.0174022319
H          1.8229180097        -0.8450124504        -1.9940183348
H          2.1112458844         1.0450737702        -1.6921026202
H          2.9970025591        -0.2021528586        -0.9874810159
          10
ANG Step:         38 Time:      785.4750616362
N          0.0192210428        -0.0798206494        -0.1117200857
N          1.2703999178         0.0902239718         0.0126154197
C         -0.8741655642         0.0069989382        -1.2341961564
C          2.0647088711        -0.0199765061        -1.2240973530
H         -1.8761870106        -0.1676997651        -0.9900610450
H         -0.7837547697         0.8104689757        -1.8521358401
H         -0.6142001693        -0.6854738443        -2.0405848644
H          1.8329254241        -0.8194368625        -1.9746256679
H          2.1157066128         1.0745308281        -1.6989092558
H          3.0319684675        -0.2047786810        -1.0126960345
          10
ANG Step:         39 Time:      806.1454579951
N          0.0192303398        -0.0804482659        -0.1131885276
N          1.2682805657         0.0932520701         0.0132702876
C         -0.8816350188         0.0055653105        -1.2339980221
C          2.0726303327        -0.0265008896        -1.2225871217
H         -1.9029890579        -0.1940084074        -0.9662896573
H         -0.7860353908         0.8446633358        -1.8583016695
H         -0.6150257767        -0.6789351993        -2.0617439778
H          1.8410534780        -0.7912653563        -1.9529949873
H          2.1187371783         1.0973749211        -1.7042419218
H          3.0746474406        -0.2088155262        -1.0344806240
          10
ANG Step:         40 Time:      826.8158543539
N          0.0191976724        -0.0811391176        -0.1147721919
N          1.2662017125         0.0962411345         0.0137248539
C         -0.8890218425         0.0038290173        -1.2340503876
C          2.0804864754        -0.0322688751        -1.2212919506
H         -1.9298180627        -0.2198690065        -0.9416960959
H         -0.7887294524         0.8846776002        -1.8634184004
H         -0.6158958725        -0.6747293654        -2.0801390262
H          1.8465314910        -0.7626189414        -1.9310415245
H          2.1204378534         1.1125448171        -1.7076562105
H          3.1216054629        -0.2135697739        -1.0532143637
          10
ANG Step:         41 Time:      847.4862507128
N          0.0191035924        -0.0819139302        -0.1164932400
N          1.2642118758         0.0991907483         0.0139650733
C         -0.8964269864         0.0019539104        -1.2344572180
C          2.0885773841        -0.0370500981        -1.2199881063
H         -1.9543251918        -0.2446105944        -0.9172532148
H         -0.7924897507         0.9274166893        -1.8656390706