10
ANG Step:         22 Time:      454.7487198947
N     0.01025521     0.01777424    -0.00045852
N     1.29218926     0.00518340    -0.02507892
C    -0.80544052    -0.00369947    -1.28927902
C     1.99777629    -0.00707182    -1.26220182
H    -1.89810539    -0.27616574    -1.20884548
H    -0.63838194     1.02116840    -1.75144741
H    -0.48666788    -0.87800503    -1.95435012
H     1.56424085    -0.84589835    -1.77411127
H     1.96941674     0.91919353    -1.79291902
H     2.99658659    -0.13342454    -0.99988266
