10
ANG Step:        548 Time:    11327.3772046486
N     0.15466444    -0.12186600    -1.12444551
N     1.12472395     0.58318282    -0.68011601
C    -1.02028686    -0.05210199    -0.43375915
C     2.25097976    -0.31170178    -0.63617549
H    -0.86688333     0.69048983     0.52897842
H    -2.02120539     0.04255011    -0.89931489
H    -1.21637428    -1.05676255     0.09361913
H     3.18290996    -0.02272408    -0.16893087
H     1.86824725    -1.34306302    -0.28731814
H     2.41971028    -0.38985653    -1.67273159
