10
ANG Step:        120 Time:     2480.4475630617
N     0.06466383    -0.37293570    -0.40089285
N     1.18660389     0.27868881    -0.18182890
C    -1.14655675     0.10327879    -0.96627105
C     2.39750753    -0.03552880    -1.09772102
H    -1.74472902     0.69266710    -0.25078459
H    -1.12564706     0.95975537    -1.71793943
H    -1.56712219    -0.59605513    -1.60805758
H     2.31068682    -1.16863810    -1.51482914
H     2.41975099     0.71775979    -1.95354110
H     3.22649286    -0.10489585    -0.49950968
