          10
ANG Step:          0 Time:        0.0000000000
N          0.0074205515         0.0296727494         0.0156744988
N          1.2493988991         0.0043435553         0.0037586663
C         -0.7337148097        -0.0315534135        -1.3229107205
C          1.9753248235        -0.0076868440        -1.2581337415
H         -1.7652798371        -0.1596972094        -0.8792005577
H         -0.7531758784         1.0452079302        -1.8553071469
H         -0.2603182024        -0.7086407584        -2.0446015868
H          1.6438090663        -0.8207642541        -1.9466760003
H          1.7348960799         0.8783749725        -1.8243606626
H          2.9545684334        -0.2423314956        -1.2041544012
          10
ANG Step:          1 Time:       20.6703963588
N          0.0078878531         0.0297312911         0.0179251214
N          1.2523943675         0.0034660152         0.0021052926
C         -0.7392388760        -0.0267122545        -1.3257844903
C          1.9730023571        -0.0061704869        -1.2571933989
H         -1.7505373597        -0.1788637785        -0.8825437067
H         -0.7349201714         1.0291012276        -1.8356696135
H         -0.2630747250        -0.7383821021        -2.0642677595
H          1.6399152602        -0.7997582380        -1.9183926899
H          1.7467953982         0.8628975645        -1.8318548362
H          2.9616274231        -0.2471620206        -1.2068529660
          10
ANG Step:          2 Time:       41.3407927177
N          0.0081413534         0.0297824015         0.0198636304
N          1.2556674095         0.0025500405         0.0003063820
C         -0.7448943465        -0.0214355834        -1.3284353306
C          1.9702751771        -0.0048034743        -1.2564090340
H         -1.7339513343        -0.1992878017        -0.8902319365
H         -0.7164098230         1.0078757310        -1.8131193975
H         -0.2693005175        -0.7668076542        -2.0802555825
H          1.6349030050        -0.7797910061        -1.8892102210
H          1.7598658607         0.8499314400        -1.8393433772
H          2.9755021859        -0.2511746605        -1.2071407002
          10
ANG Step:          3 Time:       62.0111890765
N          0.0082106354         0.0298201906         0.0214945610
N          1.2591616674         0.0016179219        -0.0016130134
C         -0.7504851321        -0.0159892461        -1.3309138980
C          1.9674189025        -0.0035563297        -1.2556308726
H         -1.7168622485        -0.2206840819        -0.9017328354
H         -0.6980134366         0.9830422963        -1.7886220621
H         -0.2794584697        -0.7925014033        -2.0915316807
H          1.6280449210        -0.7628793754        -1.8607919001
H          1.7737729327         0.8405181226        -1.8471927427
H          2.9941820902        -0.2540196504        -1.2051793373
          10
ANG Step:          4 Time:       82.6815854354
N          0.0081297646         0.0298382638         0.0228239630
N          1.2628144981         0.0006935014        -0.0036239035
C         -0.7558278733        -0.0106647291        -1.3332257952
C          1.9647315531        -0.0023720852        -1.2547116496
H         -1.7008201734        -0.2428226601        -0.9163579956
H         -0.6800301344         0.9568200828        -1.7634526462
H         -0.2936952246        -0.8143841546        -2.0974757310
H          1.6185930802        -0.7511135003        -1.8348679843
H          1.7882333022         0.8354130672        -1.8556602659
H          3.0153595724        -0.2553406576        -1.2011885851
          10
ANG Step:          5 Time:      103.3519817942
N          0.0079354904         0.0298295533         0.0238588125
N          1.2665594159        -0.0001983804        -0.0056940664
C         -0.7607627928        -0.0057855411        -1.3353343178
C          1.9624872508        -0.0011804770        -1.2535390743
H         -1.6874581279        -0.2655203819        -0.9333233005
H         -0.6626342066         0.9321593293        -1.7391745727
H         -0.3118985580        -0.8316630121        -2.0977989009
H          1.6059416869        -0.7462769843        -1.8129442626
H          1.8030310979         0.8349653314        -1.8648136602
H          3.0367981910        -0.2548610176        -1.1954231581
          10
ANG Step:          6 Time:      124.0223781531
N          0.0076654125         0.0297861157         0.0246065364
N          1.2703283854        -0.0010325880        -0.0077890092
C         -0.7651696414        -0.0016946619        -1.3371687087
C          1.9608995282         0.0000715230        -1.2520682426
H         -1.6783029484        -0.2886038518        -0.9518387724
H         -0.6458343146         0.9125220924        -1.7175077623
H         -0.3337433155        -0.8437938197        -2.0924789098
H          1.5898430495        -0.7493808348        -1.7959704499
H          1.8180127329         0.8390638899        -1.8744867143
H          3.0565581702        -0.2524247745        -1.1881514952
          10
ANG Step:          7 Time:      144.6927745119
N          0.0073562735         0.0296989700         0.0250746251
N          1.2740538460        -0.0017845431        -0.0098732936
C         -0.7689822656         0.0012891249        -1.3386418560
C          1.9601000566         0.0013897316        -1.2503384350
H         -1.6745528539        -0.3118430560        -0.9712089125
H         -0.6294979220         0.9012862659        -1.7000489106
H         -0.3587209048        -0.8504683875        -2.0817211035
H          1.5705863120        -0.7603227994        -1.7841322021
H          1.8330644994         0.8471682957        -1.8842882200
H          3.0730938896        -0.2480001079        -1.1796385937
          10
ANG Step:          8 Time:      165.3631708708
N          0.0070424913         0.0295580922         0.0252702379
N          1.2776704209        -0.0024311713        -0.0119122245
C         -0.7721928550         0.0029431958        -1.3396755905
C          1.9601369001         0.0027232335        -1.2484635995
H         -1.6768827873        -0.3348733903        -0.9909098406
H         -0.6134836459         0.9008269594        -1.6878969509
H         -0.3861531992        -0.8516304943        -2.0659474232
H          1.5490292392        -0.7778784754        -1.7768956961
H          1.8480839669         0.8584101501        -1.8936601802
H          3.0852703206        -0.2416632992        -1.1701348078
          10
ANG Step:          9 Time:      186.0335672296
N          0.0067549481         0.0293526736         0.0251996581
N          1.2811162739        -0.0029518213        -0.0138736581
C         -0.7748430012         0.0032102080        -1.3402208753
C          1.9609901093         0.0039803732        -1.2466012913
H         -1.6853442104        -0.3571393825        -1.0106132801
H         -0.5978437119         0.9116779111        -1.6813643887
H         -0.4151949072        -0.8475205270        -2.0458122883
H          1.5264518417        -0.8000358572        -1.7732727720
H          1.8629564298         0.8717301571        -1.9019637799
H          3.0923433915        -0.2335785422        -1.1598702730
          10
ANG Step:         10 Time:      206.7039635885
N          0.0065200051         0.0290716625         0.0248675507
N          1.2843340960        -0.0033290001        -0.0157295182
C         -0.7770097000         0.0022208198        -1.3402575348
C          1.9625949160         0.0050574779        -1.2449165097
H         -1.6993926079        -0.3778905520        -1.0301521476
H         -0.5829600361         0.9323184082        -1.6799658234
H         -0.4448310458        -0.8387455037        -2.0222416588
H          1.5043118102        -0.8244779564        -1.7721448068
H          1.8775424574         0.8860136456        -1.9085670938
H          3.0939352236        -0.2239817128        -1.1490525906
          10
ANG Step:         11 Time:      227.3743599473
N          0.0063587794         0.0287044824         0.0242761973
N          1.2872717310        -0.0035488129        -0.0174566762
C         -0.7787965132         0.0002575332        -1.3397724575
C          1.9648615935         0.0058638479        -1.2435547614
H         -1.7180236021        -0.3962371727        -1.0494506992
H         -0.5695042616         0.9597343549        -1.6826858705
H         -0.4738792519        -0.8263654996        -1.9964852652
H          1.4840170778        -0.8489921304        -1.7725012332
H          1.8916766404         0.9001999980        -1.9129157046
H          3.0900209165        -0.2131702558        -1.1378647919
          10
ANG Step:         12 Time:      248.0447563062
N          0.0062867690         0.0282417475         0.0234250258
N          1.2898825342        -0.0036010837        -0.0190370762
C         -0.7803303309        -0.0023091255        -1.3387318945
C          1.9676863874         0.0063351461        -1.2426288862
H         -1.7399618391        -0.4112468398        -1.0684533892
H         -0.5582622458         0.9903398415        -1.6883348839
H         -0.5010111826        -0.8119711261        -1.9701580120
H          1.4667815841        -0.8717052674        -1.7735501182
H          1.9051740866         0.9133573528        -1.9145788699
H          3.0809325858        -0.2014980231        -1.1264610460
          10
ANG Step:         13 Time:      268.7151526650
N          0.0063138425         0.0276758273         0.0223106555
N          1.2921256093        -0.0034792105        -0.0204572317
C         -0.7817566994        -0.0050763322        -1.3370653441
C          1.9709539105         0.0064361666        -1.2422168193
H         -1.7638421904        -0.4220486926        -1.0870774294
H         -0.5499511573         1.0207436973        -1.6958093792
H         -0.5248120845        -0.7976932206        -1.9452233751
H          1.4535669923        -0.8911617431        -1.7747325758
H          1.9178405571         0.9247257488        -1.9132730451
H          3.0673781024        -0.1893724105        -1.1149584833
          10
ANG Step:         14 Time:      289.3855490239
N          0.0064445069         0.0270012105         0.0209274682
N          1.2939660346        -0.0031798495        -0.0217073506
C         -0.7832284967        -0.0076494670        -1.3346705239
C          1.9745345816         0.0061573137        -1.2423654317
H         -1.7883443745        -0.4279166184        -1.1051954661
H         -0.5451116839         1.0481505841        -1.7042070366
H         -0.5438973889        -0.7860467522        -1.9238489444
H          1.4450814733        -0.9063071724        -1.7756900219
H          1.9294831941         0.9337375324        -1.9088690362
H          3.0504637731        -0.1772502579        -1.1034247339
          10
ANG Step:         15 Time:      310.0559453827
N          0.0066783104         0.0262146948         0.0192685612
N          1.2953751378        -0.0027025296        -0.0227803537
C         -0.7848880091        -0.0096818505        -1.3314412018
C          1.9782815871         0.0055085155        -1.2430964913
H         -1.8122712195        -0.4283183128        -1.1226402685
H         -0.5440788108         1.0704625379        -1.7128383992
H         -0.5570899736        -0.7795157436        -1.9080761545
H          1.4418042654        -0.9164352941        -1.7762200922
H          1.9399202248         0.9400246012        -1.9013895992
H          3.0316997429        -0.1656281510        -1.0918628111
          10
ANG Step:         16 Time:      330.7263417416
N          0.0070102499         0.0253154512         0.0173268843
N          1.2963308013        -0.0020492825        -0.0236710156
C         -0.7868466503        -0.0109230879        -1.3273108394
C          1.9820319930         0.0045126151        -1.2444121197
H         -1.8345824597        -0.4229328183        -1.1392185827
H         -0.5469984383         1.0862250097        -1.7211924750
H         -0.5636251121        -0.7799093611        -1.8993399371
H          1.4440137137        -0.9211341817        -1.7762398910
H          1.9489890857         0.9434201965        -1.8910027409
H          3.0129545795        -0.1550221570        -1.0801985634
          10
ANG Step:         17 Time:      351.3967381004
N          0.0074310597         0.0243049848         0.0150963346
N          1.2968177532        -0.0012243537        -0.0243754079
C         -0.7891692642        -0.0112622159        -1.3222928668
C          1.9856164229         0.0031991193        -1.2462979000
H         -1.8544038162        -0.4116479179        -1.1547245673
H         -0.5538586298         1.0945255305        -1.7288943829
H         -0.5633082765        -0.7877503982        -1.8980339240
H          1.4518058090        -0.9202503464        -1.7757640615
H          1.9565530182         0.9439599950        -1.8780136721
H          2.9963180592        -0.1459328692        -1.0682807648
          10
ANG Step:         18 Time:      372.0671344593
N          0.0079273266         0.0231869835         0.0125726024
N          1.2968277901        -0.0002340339        -0.0248907771
C         -0.7918693172        -0.0107377540        -1.3164939992
C          1.9888800701         0.0015988860        -1.2487221632
H         -1.8710291955        -0.3945496690        -1.1689487701
H         -0.5645172886         1.0949007745        -1.7356733662
H         -0.5565484361        -0.8020717900        -1.9033842811
H          1.4650970573        -0.9138788890        -1.7748999254
H          1.9625063786         0.9418842091        -1.8628561660
H          2.9838440485        -0.1387956908        -1.0559071792
          10
ANG Step:         19 Time:      392.7375308181
N          0.0084814917         0.0219670599         0.0097536619
N          1.2963599082         0.0009133830        -0.0252159013
C         -0.7949159502        -0.0095038006        -1.3100924506
C          1.9917132716        -0.0002591649        -1.2516307252
H         -1.8839283078        -0.3719121687        -1.1816823032
H         -0.5787190109         1.0872742973        -1.7413476445
H         -0.5442500400        -0.8207648322        -1.9137218685
H          1.4836106008        -0.9023826535        -1.7738601883
H          1.9667790117         0.9376388295        -1.8460818187
H          2.9771945379        -0.1339241991        -1.0428853400
          10
ANG Step:         20 Time:      413.4079271770
N          0.0090718650         0.0206524317         0.0066399331
N          1.2954204154         0.0022075328        -0.0253518778
C         -0.7982475925        -0.0077731393        -1.3032962289
C          1.9940830098        -0.0023475436        -1.2549380880
H         -1.8927664550        -0.3441899536        -1.1927170799
H         -0.5961003820         1.0719320606        -1.7458274303
H         -0.5276229957        -0.8412349524        -1.9269715377
H          1.5068492353        -0.8864394091        -1.7729927917
H          1.9693399785         0.9318702360        -1.8283437085
H          2.9772832079        -0.1314630204        -1.0291191343
          10
ANG Step:         21 Time:      434.0783235358
N          0.0096728162         0.0192516199         0.0032342145
N          1.2940230731         0.0036358451        -0.0253032010
C         -0.8017851275        -0.0057687066        -1.2963038398
C          1.9960521252        -0.0046342664        -1.2585185205
H         -1.8974375091        -0.3120109677        -1.2018432865
H         -0.6161862950         1.0495358489        -1.7491359197
H         -0.5079936548        -0.8609951083        -1.9410949119
H          1.5340647152        -0.8671090842        -1.7728249493
H          1.9702006608         0.9254036179        -1.8103694827
H          2.9840666963        -0.1313683935        -1.0146886182
          10
ANG Step:         22 Time:      454.7487198947
N          0.0102552059         0.0177742378        -0.0004585238
N          1.2921892613         0.0051833968        -0.0250789197
C         -0.8054405248        -0.0036994660        -1.2892790190
C          1.9977762890        -0.0070718213        -1.2622018183
H         -1.8981053904        -0.2761657402        -1.2088454832
H         -0.6383819445         1.0211684017        -1.7514474094
H         -0.4866678784        -0.8780050252        -1.9543501249
H          1.5642408481        -0.8458983537        -1.7741112707
H          1.9694167395         0.9191935324        -1.7929190205
H          2.9965865875        -0.1334245352        -0.9998826643
          10
ANG Step:         23 Time:      475.4191162535
N          0.0107870482         0.0162309085        -0.0044314202
N          1.2899480509         0.0068328386        -0.0246935883
C         -0.8091205486        -0.0017583773        -1.2823388758
C          1.9994788062        -0.0095850991        -1.2657777678
H         -1.8952440977        -0.2375876650        -1.2134989791
H         -0.6619674531         0.9883941143        -1.7531391286
H         -0.4648547266        -0.8907733480        -1.9653787730
H          1.5961181750        -0.8247746201        -1.7778613225
H          1.9670881076         0.9142379535        -1.7767252158
H          3.0132371299        -0.1372876870        -0.9851663640
          10
ANG Step:         24 Time:      496.0895126123
N          0.0112343846         0.0146332986        -0.0086759899
N          1.2873359918         0.0085644975        -0.0241676985
C         -0.8127272525        -0.0001315988        -1.2755504834
C          2.0014117201        -0.0120664563        -1.2690116694
H         -1.8896608982        -0.1973194117        -1.2155681745
H         -0.6861050520         0.9533013019        -1.7548451517
H         -0.4436358039        -0.8983229600        -1.9731897827
H          1.6282944900        -0.8060527648        -1.7853006714
H          1.9633561828         0.9114570188        -1.7624229009
H          3.0321269458        -0.1425397638        -0.9711009915
          10
ANG Step:         25 Time:      516.7599089712
N          0.0115623722         0.0129942073        -0.0131822393
N          1.2843964616         0.0103567501        -0.0235273456
C         -0.8161575704         0.0009932585        -1.2689329636
C          2.0038131442        -0.0143874165        -1.2716720712
H         -1.8824820720        -0.1564619444        -1.2148084865
H         -0.7098708483         0.9184665617        -1.7574841975
H         -0.4239606726        -0.9001077382        -1.9771029738
H          1.6594212900        -0.7920764991        -1.7977063630
H          1.9583993673         0.9115541526        -1.7504789662
H          3.0513971314        -0.1487355232        -0.9582531105
          10
ANG Step:         26 Time:      537.4303053300
N          0.0117366516         0.0113276157        -0.0179384603
N          1.2811785230         0.0121866928        -0.0228030849
C         -0.8193045411         0.0014308888        -1.2624660773
C          2.0068692332        -0.0164302134        -1.2735690866
H         -1.8750777459        -0.1161068207        -1.2109735017
H         -0.7323197592         0.8867622731        -1.7622117456
H         -0.4066523617        -0.8959315079        -1.9766898995
H          1.6884621591        -0.7846966395        -1.8160904051
H          1.9524284618         0.9148925326        -1.7411414708
H          3.0694270071        -0.1554361688        -0.9471220936
          10
ANG Step:         27 Time:      558.1007016889
N          0.0117250665         0.0096485937        -0.0229305971
N          1.2777353748         0.0140310175        -0.0220282021
C         -0.8220629238         0.0010213744        -1.2561084794
C          2.0106895861        -0.0181272498        -1.2745940981
H         -1.8689089353        -0.0772602868        -1.2038290980
H         -0.7525782933         0.8609517613        -1.7702407721
H         -0.3924117343        -0.8858906959        -1.9717297522
H          1.7149025302        -0.7847222884        -1.8408119139
H          1.9456833970         0.9214230268        -1.7344226690
H          3.0849291563        -0.1622304077        -0.9380969173
          10
ANG Step:         28 Time:      578.7710980477
N          0.0114997060         0.0079730053        -0.0281412584
N          1.2741226090         0.0158669038        -0.0212368461
C         -0.8243415081        -0.0003299724        -1.2498255615
C          2.0153034680        -0.0194841543        -1.2747434719
H         -1.8653025323        -0.0407764413        -1.1931762322
H         -0.7699385544         0.8431262366        -1.7825224449
H         -0.3818130800        -0.8703461575        -1.9621878085
H          1.7387836113        -0.7916492714        -1.8713168762
H          1.9384308448         0.9306856095        -1.7301204319
H          3.0969698964        -0.1687475441        -0.9314388296
          10
ANG Step:         29 Time:      599.4414944066
N          0.0110390359         0.0063170359        -0.0335486576
N          1.2703964910         0.0176727338        -0.0204624423
C         -0.8260817666        -0.0026128688        -1.2436176432
C          2.0206755056        -0.0205701360        -1.2741125243
H         -1.8651977306        -0.0073199206        -1.1788828779
H         -0.7839168443         0.8342026301        -1.7993894995
H         -0.3752861165        -0.8499227474        -1.9482199545
H          1.7605372856        -0.8038500997        -1.9061803849
H          1.9309607500         0.9418816813        -1.7278699565
H          3.1049543540        -0.1746667979        -0.9272805118
          10
ANG Step:         30 Time:      620.1118907654
N          0.0103297142         0.0046966453        -0.0391258925
N          1.2666123982         0.0194285354        -0.0197365638
C         -0.8272776763        -0.0056952299        -1.2375319323
C          2.0267291213        -0.0214840887        -1.2728636091
H         -1.8689420298         0.0226302135        -1.1609219206
H         -0.7942595428         0.8337602222        -1.8203551710
H         -0.3730820328        -0.8255332767        -1.9302054854
H          1.7807349577        -0.8190972470        -1.9434283354
H          1.9235799524         0.9539937515        -1.7272098317
H          3.1086053775        -0.1797250671        -0.9256319518
          10
ANG Step:         31 Time:      640.7822871243
N          0.0093677073         0.0031270568        -0.0448408799
N          1.2628234605         0.0211161911        -0.0190881996
C         -0.8279885392        -0.0093383267        -1.2316476461
C          2.0333650640        -0.0223194064        -1.2711866524
H         -1.8762156174         0.0487424712        -1.1394062945
H         -0.8009121458         0.8403113643        -1.8441977361
H         -0.3752238743        -0.7984231856        -1.9088082485
H          1.7998872316        -0.8351133709        -1.9809452106
H          1.9166024806         0.9659202903        -1.7276462927
H          3.1079527678        -0.1837238518        -0.9263857185
          10
ANG Step:         32 Time:      661.4526834831
N          0.0081585465         0.0016223187        -0.0506570136
N          1.2590794209         0.0227194979        -0.0185432845
C         -0.8283396195        -0.0132311097        -1.2260407484
C          2.0404700170        -0.0231432061        -1.2692687296
H         -1.8861142792         0.0707840737        -1.1146093580
H         -0.8039785714         0.8518223424        -1.8692709343
H         -0.3814460140        -0.7702285667        -1.8850592600
H          1.8183498305        -0.8499341826        -2.0167875919
H          1.9103376519         0.9765974266        -1.7287047216
H          3.1033383043        -0.1865355068        -0.9293180426
          10
ANG Step:         33 Time:      682.1230798420
N          0.0067168166         0.0001949041        -0.0565343638
N          1.2554257612         0.0242241589        -0.0181244201
C         -0.8285117086        -0.0170239006        -1.2207465352
C          2.0479173437        -0.0239912845        -1.2672781907
H         -1.8973517656         0.0885850588        -1.0869615204
H         -0.8036838149         0.8662036215        -1.8938577424
H         -0.3911382840        -0.7430256145        -1.8604369217
H          1.8363139934        -0.8620534280        -2.0493432402
H          1.9050777854         0.9850912244        -1.7299645610
H          3.0954329096        -0.1881086528        -0.9340859230
          10
ANG Step:         34 Time:      702.7934762008
N          0.0050651567        -0.0011446867        -0.0624311174
N          1.2519031259         0.0256177467        -0.0178507748
C         -0.8287235384        -0.0203532332        -1.2157371144
C          2.0555644829        -0.0248726707        -1.2653602637
H         -1.9085017389         0.1020255724        -1.0570226268
H         -0.8003401572         0.8816103391        -1.9164236173
H         -0.4033316972        -0.7193194563        -1.8368899573
H          1.8538374870        -0.8704220894        -2.0773674263
H          1.9010869794         0.9906574889        -1.7310794078
H          3.0852542483        -0.1884717166        -0.9402239995
          10
ANG Step:         35 Time:      723.4638725597
N          0.0032331002        -0.0023883022        -0.0683049336
N          1.2485470400         0.0268896641        -0.0177381615
C         -0.8292079963        -0.0228648749        -1.2109243003
C          2.0632513076        -0.0257777235        -1.2636383863
H         -1.9182086949         0.1110421464        -1.0254376158
H         -0.7943163679         0.8965519239        -1.9357325667
H         -0.4167890243        -0.7018831515        -1.8167114106
H          1.8708842152        -0.8743833534        -2.0999535308
H          1.8985914978         0.9927751058        -1.7317867543
H          3.0741637971        -0.1877318981        -0.9471482554
          10
ANG Step:         36 Time:      744.1342689185
N          0.0012560405        -0.0035304375        -0.0741139498
N          1.2453878587         0.0280311161        -0.0177992636
C         -0.8301797636        -0.0242479890        -1.2061921928
C          2.0708031882        -0.0266865314        -1.2622162467
H         -1.9253340752         0.1156427508        -0.9928863887
H         -0.7860123461         0.9098835694        -1.9508606053
H         -0.4302618657        -0.6933555867        -1.8021714520
H          1.8873572255        -0.8735967895        -2.1164830367
H          1.8977715186         0.9911625369        -1.7319121824
H          3.0638131988        -0.1860648172        -0.9541763742
          10
ANG Step:         37 Time:      764.8046652774
N         -0.0008255648        -0.0045684244        -0.0798173242
N          1.2424508772         0.0290351074        -0.0180439556
C         -0.8317961681        -0.0242843419        -1.2014530628
C          2.0780419106        -0.0275766829        -1.2611771969
H         -1.9290375334         0.1159215754        -0.9600375159
H         -0.7758416789         0.9207505920        -1.9611573357
H         -0.4428903633        -0.6956140959        -1.7949267171
H          1.9031207579        -0.8679775353        -2.1265808958
H          1.8987536894         0.9857864514        -1.7313717840
H          3.0560065948        -0.1836893738        -0.9605748859
          10
ANG Step:         38 Time:      785.4750616362
N         -0.0029668476        -0.0055025687        -0.0853754741
N          1.2397565286         0.0298964621        -0.0184796674
C         -0.8341253328        -0.0228953149        -1.1967022840
C          2.0848058961        -0.0284303355        -1.2605794699
H         -1.9288100474         0.1120677033        -0.9275117159
H         -0.7642220892         0.9285281059        -1.9661944162
H         -0.4545584490        -0.7091629012        -1.7954486888
H          1.9180119081        -0.8576596703        -2.1300884573
H          1.9016041861         0.9768684130        -1.7301749719
H          3.0524610455        -0.1808254130        -0.9656376305
          10
ANG Step:         39 Time:      806.1454579951
N         -0.0051192940        -0.0063363289        -0.0907503586
N          1.2373206476         0.0306118547        -0.0191117620
C         -0.8371412281        -0.0201561481        -1.1920391229
C          2.0909771613        -0.0292400123        -1.2604475411
H         -1.9244777167         0.1043648631        -0.8958568377
H         -0.7515714897         0.9327736898        -1.9657229293
H         -0.4659503540        -0.7329148502        -1.8028380254
H          1.9318442503        -0.8429856643        -2.1270590301
H          1.9063227140         0.9648912799        -1.7284280874
H          3.0544923121        -0.1776406712        -0.9687860321
          10
ANG Step:         40 Time:      826.8158543539
N         -0.0072318246        -0.0070765608        -0.0959060625
N          1.2351548534         0.0311798332        -0.0199439290
C         -0.8407492769        -0.0162639087        -1.1876405541
C          2.0965070520        -0.0300113594        -1.2607618626
H         -1.9161907324         0.0931823734        -0.8655323940
H         -0.7383066687         0.9331986824        -1.9596495333
H         -0.4782504698        -0.7645325656        -1.8151664622
H          1.9444061503        -0.8245213969        -2.1177783056
H          1.9128389598         0.9506017376        -1.7263372211
H          3.0627157615        -0.1742048920        -0.9696637013
          10
ANG Step:         41 Time:      847.4862507128
N         -0.0092521940        -0.0077337236        -0.1008096081
N          1.2332671462         0.0316008266        -0.0209786072
C         -0.8448238283        -0.0114793124        -1.1837089793
C          2.1014299418        -0.0307603941        -1.2614502009
H         -1.9044054057         0.0789596470        -0.8368997174
H         -0.7248419324         0.9296610274        -1.9480345100