10
ANG Step:        490 Time:    10128.4942158354
N     0.15615985    -0.34480591    -0.36905906
N     1.07181714     0.40599844    -0.92600768
C    -1.21340993    -0.00419742    -0.72482809
C     2.43093647    -0.07754495    -0.75930184
H    -1.03077044     1.09115107    -0.90819842
H    -1.44182526    -0.52708112    -1.66610562
H    -1.74881047    -0.14861393     0.07486034
H     2.92546418     0.44470576     0.06963942
H     2.52844270    -1.18448866    -0.53227848
H     3.01163487     0.44526634    -1.58617070
