10
ANG Step:        110 Time:     2273.7435994733
N     0.11067435    -0.32445334    -0.21445084
N     1.11990321     0.32699116    -0.40186981
C    -1.05710822     0.13399013    -1.01407688
C     2.28535622    -0.12722961    -1.02752179
H    -2.01695937    -0.22351489    -0.54371542
H    -0.88649344     1.30640775    -1.27136771
H    -1.07277559    -0.31666768    -2.01359797
H     2.29251705    -1.28715180    -1.12624255
H     2.51589329     0.40270958    -1.88198539
H     3.24650687     0.00006333    -0.50648010
