10
ANG Step:        308 Time:     6366.4820785251
N    -0.02011315    -0.25425664    -1.27292876
N     1.22241352     0.11796396    -1.33820396
C    -0.86245225     0.06019983    -0.16634680
C     2.13415031     0.03129577    -0.19776049
H    -1.96776102    -0.02914093    -0.62092198
H    -0.56315201    -0.32878790     0.89157806
H    -0.80432873     1.18078738     0.02536704
H     1.61616238    -0.45981496     0.54768755
H     3.07915589    -0.58778162    -0.50648136
H     2.59501532     1.02676035     0.06348289
