10
ANG Step:        386 Time:     7978.7729945153
N     0.04493553    -0.45285968    -1.20119825
N     1.09362586     0.29470012    -1.11305974
C    -0.91912873     0.11004358    -0.28887871
C     2.26006487     0.01739213    -0.30792889
H    -1.81718968     0.59012826    -0.84487074
H    -1.38273204    -0.67403666     0.32712430
H    -0.55390181     0.81104745     0.30221507
H     2.01719899    -0.03260652     0.70864376
H     2.82236972    -0.82102057    -0.75297971
H     2.93089209     0.80445978    -0.69315121
