10
ANG Step:        564 Time:    11658.1035463902
N    -0.01299342    -0.02290051    -0.08140214
N     1.16771134     0.30718648    -0.51154121
C    -1.14939433    -0.08656366    -0.98186620
C     2.47627093    -0.12464488    -1.09101196
H    -1.87218953     0.62542407    -0.66174778
H    -1.03299527     0.03239519    -2.02367614
H    -1.57661538    -1.24042665    -1.07064100
H     3.34324793     0.26412815    -0.51697208
H     2.57886065    -1.16145967    -0.92399928
H     2.52002430     0.04272467    -2.09623534
