10
ANG Step:        496 Time:    10252.5165939885
N     0.13922759    -0.34925122    -0.31198772
N     1.06439895     0.40789391    -0.91741541
C    -1.18809843    -0.00350810    -0.75554548
C     2.44888941    -0.06240456    -0.77618539
H    -1.11065658     1.06515628    -0.88119923
H    -1.34190467    -0.49111406    -1.82321909
H    -1.85161697    -0.17233370     0.08299860
H     2.96046514     0.38519864    -0.04674432
H     2.41607883    -1.15789025    -0.61391968
H     2.99498734     0.33887349    -1.61171381
