          10
ANG Step:          0 Time:        0.0000000000
N         -0.0065283005        -0.0485414994        -0.0097303676
N          1.2291004022         0.0423832737        -0.0154594941
C         -0.7867450072         0.0050742115        -1.2567014176
C          2.0590471351        -0.0303298658        -1.2911190132
H         -1.9130782536         0.3682938273        -1.0789164602
H         -0.4669214574         0.8905850963        -1.8041549940
H         -0.5097941936        -0.9963847815        -1.9098004241
H          1.8873776035        -0.8556658776        -1.8939337017
H          1.6004172760         0.8059391059        -1.8753397375
H          3.0668945458         0.1710368314        -0.9677298251
          10
ANG Step:          1 Time:       20.6703963588
N         -0.0127722069        -0.0484007827        -0.0098643009
N          1.2339399628         0.0428131100        -0.0152464704
C         -0.7839881666         0.0002501880        -1.2557222276
C          2.0601976907        -0.0285726376        -1.2892678527
H         -1.9250891950         0.3804289560        -1.0876303265
H         -0.4660524027         0.9105913553        -1.8066685101
H         -0.5197199484        -0.9803126439        -1.9074798736
H          1.8671785173        -0.8642673334        -1.9093131664
H          1.5959499457         0.7888701697        -1.8760754848
H          3.0856207343         0.1770827638        -0.9775017048
          10
ANG Step:          2 Time:       41.3407927177
N         -0.0192359110        -0.0483408461        -0.0101416236
N          1.2390259583         0.0431600130        -0.0152254126
C         -0.7815467378        -0.0043409261        -1.2549186217
C          2.0610587935        -0.0262751971        -1.2871255401
H         -1.9301410708         0.3866156808        -1.0966373242
H         -0.4644570989         0.9282317421        -1.8091669597
H         -0.5335035504        -0.9580403535        -1.9011239379
H          1.8479165215        -0.8764454085        -1.9241202598
H          1.5946384387         0.7714841154        -1.8762428793
H          3.1032584527         0.1822058167        -0.9888881312
          10
ANG Step:          3 Time:       62.0111890765
N         -0.0257682828        -0.0483584810        -0.0105461636
N          1.2442291180         0.0434171751        -0.0153862484
C         -0.7794703328        -0.0084988214        -1.2543254023
C          2.0616815147        -0.0236387656        -1.2847768685
H         -1.9279623028         0.3867155806        -1.1058279243
H         -0.4624288616         0.9424170160        -1.8110637703
H         -0.5507168338        -0.9306016988        -1.8912644231
H          1.8302391917        -0.8905219961        -1.9369634803
H          1.5961643925         0.7546952440        -1.8761957205
H          3.1187509664         0.1861359005        -1.0020317497
          10
ANG Step:          4 Time:       82.6815854354
N         -0.0322248458        -0.0484507272        -0.0110586034
N          1.2494272486         0.0435795247        -0.0157194090
C         -0.7778046058        -0.0120183015        -1.2539391299
C          2.0621134668        -0.0208586918        -1.2822918159
H         -1.9185871223         0.3807501967        -1.1150488044
H         -0.4601753410         0.9523604875        -1.8119421807
H         -0.5707720532        -0.8995531648        -1.8787933737
H          1.8147335097        -0.9050183714        -1.9466547573
H          1.6000928241         0.7394678066        -1.8763887893
H          3.1312674830         0.1886637587        -1.0169529841
          10
ANG Step:          5 Time:      103.3519817942
N         -0.0384709328        -0.0486152379        -0.0116571645
N          1.2545075503         0.0436438356        -0.0162160225
C         -0.7765902316        -0.0146793416        -1.2537101573
C          2.0623974475        -0.0181120630        -1.2797223865
H         -1.9023612529         0.3689067580        -1.1241012771
H         -0.4578268516         0.9575663654        -1.8115444104
H         -0.5929111389        -0.8670850379        -1.8650593370
H          1.8018805839        -0.9187366324        -1.9522813472
H          1.6059107550         0.7267486881        -1.8773368218
H          3.1402287325         0.1896444119        -1.0335555617
          10
ANG Step:          6 Time:      124.0223781531
N         -0.0443839099        -0.0488506112        -0.0123183265
N          1.2593679713         0.0436088740        -0.0168679924
C         -0.7758549313        -0.0162442709        -1.2535400424
C          2.0625674226        -0.0155499041        -1.2771067423
H         -1.8799940597         0.3515593125        -1.1327327077
H         -0.4554484151         0.9578072197        -1.8097552720
H         -0.6162280532        -0.8360520849        -1.8519119554
H          1.7920377100        -0.9307639174        -1.9532121222
H          1.6130846416         0.7173802649        -1.8795485116
H          3.1453189821         0.1889967655        -1.0516371425
          10
ANG Step:          7 Time:      144.6927745119
N         -0.0498545655        -0.0491565929        -0.0130174470
N          1.2639177805         0.0434755611        -0.0176679491
C         -0.7755968543        -0.0164742516        -1.2532921636
C          2.0626425965        -0.0132912753        -1.2744775317
H         -1.8526576517         0.3293026740        -1.1406229439
H         -0.4530510595         0.9531050865        -1.8065877842
H         -0.6397487699        -0.8097922108        -1.8415941962
H          1.7854380290        -0.9404422366        -1.9490722380
H          1.6211294058         0.7120021277        -1.8834412367
H          3.1464918056         0.1867017864        -1.0709021329
          10
ANG Step:          8 Time:      165.3631708708
N         -0.0547877654        -0.0495340612        -0.0137291706
N          1.2680775661         0.0432471331        -0.0186090824
C         -0.7757598418        -0.0151763896        -1.2528245274
C          2.0626214533        -0.0114185521        -1.2718709090
H         -1.8221259263         0.3029897906        -1.1473693388
H         -0.4506001269         0.9437242401        -1.8021747699
H         -0.6625725268        -0.7915980229        -1.8363694556
H          1.7821975302        -0.9473331157        -1.9397111002
H          1.6296731770         0.7109613929        -1.8892538802
H          3.1439724902         0.1828005840        -1.0909758044
          10
ANG Step:          9 Time:      186.0335672296
N         -0.0591025040        -0.0499847881        -0.0144276823
N          1.2717788698         0.0429292763        -0.0196848716
C         -0.7762077901        -0.0122772404        -1.2520435021
C          2.0624781094        -0.0099746760        -1.2693328591
H         -1.7909202029         0.2737498839        -1.1524775361
H         -0.4480194286         0.9301777503        -1.7967683731
H         -0.6840234710        -0.7838713881        -1.8378890123
H          1.7823219397        -0.9511928775        -1.9251775290
H          1.6384981389         0.7142568645        -1.8969831711
H          3.1382556893         0.1773926676        -1.1114201410
          10
ANG Step:         10 Time:      206.7039635885
N         -0.0627315463        -0.0505110869        -0.0150871006
N          1.2749636527         0.0425302138        -0.0208887846
C         -0.7767140668        -0.0078879058        -1.2509540944
C          2.0621629561        -0.0089632667        -1.2669203203
H         -1.7623680697         0.2429461680        -1.1553707835
H         -0.4451906376         0.9132435533        -1.7907478191
H         -0.7037166154        -0.7873283746        -1.8465727598
H          1.7857092189        -0.9519658611        -1.9057079294
H          1.6475438989         0.7215361300        -1.9063659403
H          3.1300925462         0.1706335668        -1.1317523447
          10
ANG Step:         11 Time:      227.3743599473
N         -0.0656208551        -0.0511155143        -0.0156823169
N          1.2775837399         0.0420607030        -0.0222140399
C         -0.7769852110        -0.0023108553        -1.2496695160
C          2.0616084773        -0.0083513726        -1.2646963676
H         -1.7403952031         0.2120244571        -1.1554350220
H         -0.4419483335         0.8939788648        -1.7846328419
H         -0.7214889854        -0.8007859206        -1.8614271900
H          1.7921463429        -0.9497981301        -1.8817280598
H          1.6568740679         0.7321475125        -1.9169142164
H          3.1204580183         0.1627300887        -1.1514665344
          10
ANG Step:         12 Time:      248.0447563062
N         -0.0677289037        -0.0518007000        -0.0161902628
N          1.2796003627         0.0415339114        -0.0236535079
C         -0.7767302886         0.0040267651        -1.2483674208
C          2.0607398335        -0.0080733124        -1.2627208016
H         -1.7288454671         0.1822467441        -1.1521133741
H         -0.4380733244         0.8737161773        -1.7790951046
H         -0.7372635622        -0.8216876227        -1.8804448055
H          1.8013018897        -0.9450708559        -1.8538652396
H          1.6666206780         0.7452299955        -1.9279903994
H          3.1104878254         0.1539310153        -1.1700579543
          10
ANG Step:         13 Time:      268.7151526650
N         -0.0690259189        -0.0525692194        -0.0165912559
N          1.2809838627         0.0409651697        -0.0251997007
C         -0.7757646314         0.0106722625        -1.2472212642
C          2.0594888213        -0.0080337799        -1.2610390156
H         -1.7303496966         0.1544178030        -1.1450429207
H         -0.4332919835         0.8540178758        -1.7749518155
H         -0.7509525263        -0.8469656103        -1.9012746137
H          1.8127188559        -0.9384476740        -1.8229638385
H          1.6769261754         0.7598149317        -1.9388978774
H          3.1013775901         0.1445117170        -1.1870472716
          10
ANG Step:         14 Time:      289.3855490239
N         -0.0694932414        -0.0534233687        -0.0168701991
N          1.2817135612         0.0403716447        -0.0268447180
C         -0.7740994736         0.0172224277        -1.2463469930
C          2.0578090250        -0.0081096323        -1.2596725356
H         -1.7452659965         0.1288013459        -1.1341882375
H         -0.4272968502         0.8365608213        -1.7731170715
H         -0.7624356147        -0.8737353403        -1.9217594692
H          1.8258151981        -0.9309211871        -1.7900914321
H          1.6878980259         0.7749168291        -1.9489635526
H          3.0942467593         0.1347532526        -1.2020011460
          10
ANG Step:         15 Time:      310.0559453827
N         -0.0691230529        -0.0543647812        -0.0170176979
N          1.2817776969         0.0397719901        -0.0285800253
C         -0.7719535234         0.0233529881        -1.2457862713
C          2.0556891740        -0.0081522067        -1.2586143440
H         -1.7714594343         0.1053084397        -1.1198985144
H         -0.4198064334         0.8229307004        -1.7744872808
H         -0.7715836196        -0.8996312893        -1.9401845222
H          1.8399021907        -0.9238292651        -1.7565166331
H          1.6995817696         0.7896018724        -1.9575988351
H          3.0899859941         0.1249195025        -1.2145453951
          10
ANG Step:         16 Time:      330.7263417416
N         -0.0679184796        -0.0553939685        -0.0170310883
N          1.2811733421         0.0391860138        -0.0303960990
C         -0.7696733134         0.0288213446        -1.2455240565
C          2.0531610816        -0.0079944740        -1.2578311861
H         -1.8051105300         0.0837936515        -1.1028460409
H         -0.4106673887         0.8143462601        -1.7797615214
H         -0.7782896097        -0.9228631061        -1.9553034271
H          1.8542308674        -0.9187955389        -1.7236363771
H          1.7119508501         0.8030341362        -1.9643367664
H          3.0891224779         0.1152380481        -1.2243694190
          10
ANG Step:         17 Time:      351.3967381004
N         -0.0658937466        -0.0565099277        -0.0169150642
N          1.2799062826         0.0386343593        -0.0322821265
C         -0.7676193711         0.0334665784        -1.2455235019
C          2.0502991096        -0.0074681471        -1.2572733853
H         -1.8419263769         0.0642386255        -1.0838820310
H         -0.3999696093         0.8113963201        -1.7892447516
H         -0.7824894557        -0.9421387508        -1.9662632982
H          1.8680703328        -0.9175446863        -1.6928389103
H          1.7249079436         0.8145061622        -1.9688502261
H          3.0917418762         0.1058900232        -1.2312240445
          10
ANG Step:         18 Time:      372.0671344593
N         -0.0630741099        -0.0577099234        -0.0166816016
N          1.2779909668         0.0381381671        -0.0342259786
C         -0.7660826804         0.0372098153        -1.2457576605
C          2.0472107041        -0.0064327527        -1.2568898351
H         -1.8780512959         0.0467726201        -1.0638882936
H         -0.3881182871         0.8139066538        -1.8027187492
H         -0.7841691156        -0.9565567594        -1.9725114277
H          1.8808057050        -0.9215773131        -1.6653174148
H          1.7382924244         0.8234616827        -1.9709586122
H          3.0974906845         0.0970106131        -1.2349173070
          10
ANG Step:         19 Time:      392.7375308181
N         -0.0594955835        -0.0589894838        -0.0163491541
N          1.2754506784         0.0377186745        -0.0362146055
C         -0.7652530775         0.0400462022        -1.2462247537
C          2.0440214055        -0.0048109206        -1.2566423933
H         -1.9104618014         0.0316104209        -1.0436774507
H         -0.3758179737         0.8210075089        -1.8194485300
H         -0.7833629582        -0.9655144863        -1.9737201170
H          1.8920235171        -0.9317745355        -1.6418914390
H          1.7518900275         0.8295158974        -1.9706297131
H          3.1056545095         0.0886974006        -1.2353121798
          10
ANG Step:         20 Time:      413.4079271770
N         -0.0552046918        -0.0603425985        -0.0159413120
N          1.2723180551         0.0373967357        -0.0382348846
C         -0.7652263423         0.0420260218        -1.2469456502
C          2.0408601180        -0.0026159430        -1.2565125356
H         -1.9369939109         0.0189853822        -1.0239485547
H         -0.3639712254         0.8313674251        -1.8383215480
H         -0.7801481691        -0.9686467428        -1.9697388670
H          1.9015467504        -0.9480942618        -1.6229149859
H          1.7654425187         0.8324749887        -1.9679812236
H          3.1152829015         0.0810213200        -1.2323276027
          10
ANG Step:         21 Time:      434.0783235358
N         -0.0502584553        -0.0617620902        -0.0154851507
N          1.2686359625         0.0371923025        -0.0402748112
C         -0.7660280804         0.0432319289        -1.2479506538
C          2.0378490741         0.0000424300        -1.2564966066
H         -1.9562104901         0.0091067335        -1.0052805205
H         -0.3535388724         0.8434826195        -1.8580511614
H         -0.7746385411        -0.9657969802        -1.9605730199
H          1.9094045616        -0.9695207318        -1.6083152581
H          1.7786566965         0.8323534460        -1.9632836490
H          3.1253235482         0.0740358048        -1.2259415562
          10
ANG Step:         22 Time:      454.7487198947
N         -0.0447246825        -0.0632401199        -0.0150094598
N          1.2644586124         0.0371239715        -0.0423247829
C         -0.7676384629         0.0437611201        -1.2492640361
C          2.0350990340         0.0029766676        -1.2565927018
H         -1.9672417169         0.0021397362        -0.9881433701
H         -0.3454155868         0.8559175818        -1.8773649080
H         -0.7669789042        -0.9570207919        -1.9463862772
H          1.9157586332        -0.9942962655        -1.5977317832
H          1.7912130801         0.8293860370        -1.9569634986
H          3.1347379442         0.0677825388        -1.2161938256
          10
ANG Step:         23 Time:      475.4191162535
N         -0.0386824819        -0.0647687727        -0.0145430065
N          1.2598526982         0.0372087297        -0.0443786524
C         -0.7700105305         0.0437170912        -1.2508912937
C          2.0327074440         0.0059540720        -1.2567864897
H         -1.9696569909        -0.0018010286        -0.9729132780
H         -0.3403495212         0.8674512600        -1.8951330754
H         -0.7573395963        -0.9426224079        -1.9275253714
H          1.9208256143        -1.0203076447        -1.5906785230
H          1.8027755824         0.8240295417        -1.9496023899
H          3.1425865040         0.0622946122        -1.2031865461
          10
ANG Step:         24 Time:      496.0895126123
N         -0.0322228294        -0.0663406604        -0.0141129690
N          1.2548983047         0.0374619713        -0.0464342974
C         -0.7730807494         0.0432110691        -1.2528102052
C          2.0307571558         0.0087292217        -1.2570422010
H         -1.9633856889        -0.0026534467        -0.9598833103
H         -0.3389067028         0.8771365591        -1.9104334413
H         -0.7459088382        -0.9232253009        -1.9045654995
H          1.9248228189        -1.0454546388        -1.5866658522
H          1.8130041257         0.8169468972        -1.9419242906
H          3.1480839558         0.0575986005        -1.1870816808
          10
ANG Step:         25 Time:      516.7599089712
N         -0.0254489789        -0.0679494819        -0.0137436227
N          1.2496893654         0.0378977690        -0.0484936154
C         -0.7767731990         0.0423707001        -1.2549649252
C          2.0293146021         0.0110683012        -1.2573012496
H         -1.9486885418        -0.0004095733        -0.9492650332
H         -0.3414661351         0.8843039130        -1.9225699766
H         -0.7328794069        -0.8998744461        -1.8783722630
H          1.9279420349        -1.0678976239        -1.5852635824
H          1.8215722861         0.8089640663        -1.9347608195
H          3.1506319686         0.0537165687        -1.1680955263
          10
ANG Step:         26 Time:      537.4303053300
N         -0.0184765142        -0.0695904862        -0.0134553137
N          1.2443334807         0.0385293075        -0.0505620224
C         -0.7809992318         0.0413523034        -1.2572627029
C          2.0284273229         0.0127652010        -1.2574880048
H         -1.9261780566         0.0048806903        -0.9411773157
H         -0.3482297605         0.8885393224        -1.9310671169
H         -0.7184252319        -0.8741548361        -1.8501668043
H          1.9303431509        -1.0861733430        -1.5861181664
H          1.8281913175         0.8009906496        -1.9289853423
H          3.1498371421         0.0506681932        -1.1464907574
          10
ANG Step:         27 Time:      558.1007016889
N         -0.0114328516        -0.0712607948        -0.0132637078
N          1.2389509336         0.0393693592        -0.0526476310
C         -0.7856538619         0.0403510986        -1.2595748366
C          2.0281211033         0.0136529099        -1.2575208898
H         -1.8968867186         0.0131040960        -0.9356186251
H         -0.3592355134         0.8896582050        -1.9356562813
H         -0.7026657732        -0.8482812605        -1.8215620744
H          1.9321576447        -1.0992180270        -1.5889454222
H          1.8326400770         0.7939028846        -1.9254133938
H          3.1455210664         0.0484727560        -1.1225665477
          10
ANG Step:         28 Time:      578.7710980477
N         -0.0044559702        -0.0729595393        -0.0131792938
N          1.2336727178         0.0404306902        -0.0547603134
C         -0.7906091018         0.0396003065        -1.2617462239
C          2.0283971716         0.0136129721        -1.2573262068
H         -1.8623791428         0.0240791723        -0.9324195466
H         -0.3743665283         0.8876876069        -1.9362650864
H         -0.6856259055        -0.8250659910        -1.7945111791
H          1.9334952377        -1.1063445275        -1.5935152610
H          1.8347973359         0.7884039383        -1.9246808849
H          3.1377263799         0.0471507073        -1.0966471480
          10
ANG Step:         29 Time:      599.4414944066
N          0.0023078624        -0.0746877812        -0.0132071583
N          1.2286374064         0.0417263052        -0.0569108146
C         -0.7957034863         0.0393468827        -1.2636191682
C          2.0292301366         0.0125831229        -1.2568513282
H         -1.8248909582         0.0375570943        -0.9311763562
H         -0.3933532604         0.8828632843        -1.9330150234
H         -0.6672205509        -0.8076300069        -1.7710935140
H          1.9344504186        -1.1072078652        -1.5996378416
H          1.8346698236         0.7848953173        -1.9271281304
H          3.1267195717         0.0467245857        -1.0690692504
          10
ANG Step:         30 Time:      620.1118907654
N          0.0087075762        -0.0764482163        -0.0133471451
N          1.2239867429         0.0432694440        -0.0591100141
C         -0.8007279594         0.0397960055        -1.2650723036
C          2.0305675942         0.0105612030        -1.2560735940
H         -1.7874415214         0.0532354136        -0.9311796405
H         -0.4157681908         0.8756435300        -1.9262302605
H         -0.6473152122        -0.7987720204        -1.7531105153
H          1.9351074439        -1.1017787520        -1.6071556439
H          1.8324077497         0.7834019866        -1.9327264838
H          3.1129878731         0.0472191882        -1.0401687260
          10
ANG Step:         31 Time:      640.7822871243
N          0.0145921177        -0.0782447097        -0.0135945996
N          1.2198599213         0.0450732389        -0.0613683489
C         -0.8054152613         0.0410363378        -1.2660610932
C          2.0323323867         0.0076036355        -1.2550022723
H         -1.7538014281         0.0707888979        -0.9313806419
H         -0.4410159915         0.8667360305        -1.9164570552
H         -0.6258936438        -0.8001372526        -1.7416079880
H          1.9355431833        -1.0903335179        -1.6159434236
H          1.8283014089         0.7835804722        -1.9410749462
H          3.0972244092         0.0486608121        -1.0102681108
          10
ANG Step:         32 Time:      661.4526834831
N          0.0198164895        -0.0800817266        -0.0139418601
N          1.2163867243         0.0471499689        -0.0636953463
C         -0.8094532304         0.0429846960        -1.2666311382
C          2.0344282293         0.0038188246        -1.2536731914
H         -1.7281281318         0.0899075513        -0.9304751824
H         -0.4683265835         0.8571261509        -1.9044876002
H         -0.6032686773        -0.8116227872        -1.7365921407
H          1.9358273279        -1.0734613140        -1.6259168146
H          1.8227577912         0.7848071086        -1.9514680551
H          3.0802936973         0.0510751249        -0.9796675206
          10
ANG Step:         33 Time:      682.1230798420
N          0.0242486913        -0.0819636854        -0.0143803578
N          1.2136799011         0.0495099177        -0.0660991965
C         -0.8125454301         0.0453895339        -1.2668822376
C          2.0367488046        -0.0006421377        -1.2521379018
H         -1.7141305084         0.1103072498        -0.9271844891
H         -0.4967645545         0.8480850036        -1.8913719282
H         -0.5801831476        -0.8314321230        -1.7371411669
H          1.9360197551        -1.0520830450        -1.6370493154
H          1.8162623500         0.7863131601        -1.9630098723
H          3.0631704672         0.0544828678        -0.9486431121
          10
ANG Step:         34 Time:      702.7934762008
N          0.0277769945        -0.0838942330        -0.0149028011
N          1.2118274431         0.0521599702        -0.0685863259
C         -0.8145102774         0.0478947660        -1.2668969136
C          2.0391896090        -0.0055948597        -1.2504503210
H         -1.7139394312         0.1316717882        -0.9206964361
H         -0.5252738294         0.8411241165        -1.8783874410
H         -0.5577104951        -0.8567239485        -1.7418227123
H          1.9361655903        -1.0274689097        -1.6493952624
H          1.8093348712         0.7873232016        -1.9747378234
H          3.0468500912         0.0588923752        -0.9174576554
          10
ANG Step:         35 Time:      723.4638725597
N          0.0303167374        -0.0858754878        -0.0155048190
N          1.2108856245         0.0551021899        -0.0711609793
C         -0.8153585473         0.0501281309        -1.2666810655
C          2.0416608617        -0.0108304182        -1.2486537758
H         -1.7273085036         0.1535399720        -0.9110282219
H         -0.5527741600         0.8378546690        -1.8669261668
H         -0.5370304371        -0.8844022967        -1.7491360078
H          1.9362899572        -1.0012313391        -1.6631117995
H          1.8024881711         0.7871645978        -1.9857275704
H          3.0322394248         0.0642883640        -0.8863855180
          10
ANG Step:         36 Time:      744.1342689185
N          0.0318157203        -0.0879073712        -0.0161856863
N          1.2108737667         0.0583326667        -0.0738248356
C         -0.8152871264         0.0517766318        -1.2661584843
C          2.0440988683        -0.0161254624        -1.2467711482
H         -1.7517470993         0.1752330242        -0.8990350218
H         -0.5783044820         0.8397230486        -1.8582760698
H         -0.5192225630        -0.9116701912        -1.7577846329
H          1.9363964081        -0.9752599668        -1.6784653083
H          1.7961953087         0.7853358537        -1.9951659407
H          3.0200492725         0.0706180099        -0.8557484730
          10
ANG Step:         37 Time:      764.8046652774
N          0.0322574742        -0.0899871638        -0.0169480768
N          1.2117715542         0.0618408553        -0.0765766586
C         -0.8145956691         0.0526328558        -1.2652171989
C          2.0464728949        -0.0212571522        -1.2448009366
H         -1.7834772520         0.1959016517        -0.8860654478
H         -0.6011688252         0.8476583948        -1.8533332427
H         -0.5051533180        -0.9362693704        -1.7667661968
H          1.9364744937        -0.9515645442        -1.6958000973
H          1.7908671948         0.7815373919        -2.0023927760
H          3.0107166547         0.0777775797        -0.8259511830
          10
ANG Step:         38 Time:      785.4750616362
N          0.0316620241        -0.0921093616        -0.0177970518
N          1.2135194006         0.0656095082        -0.0794119564
C         -0.8135904334         0.0526124955        -1.2637689021
C          2.0487854654        -0.0260251125        -1.2427216707
H         -1.8185284471         0.2146592318        -0.8735326018
H         -0.6210158150         0.8617635451        -1.8523596178
H         -0.4954485951        -0.9565081522        -1.7753537682
H          1.9365205926        -0.9320155172        -1.7154482384
H          1.7868396812         0.7756753853        -2.0069197351
H          3.0043795346         0.0856046208        -0.7975010034
          10
ANG Step:         39 Time:      806.1454579951
N          0.0300841068        -0.0942658072        -0.0187386578
N          1.2160218353         0.0696151669        -0.0823226622
C         -0.8125261073         0.0517467628        -1.2617849326
C          2.0510662125        -0.0302777639        -1.2405047755
H         -1.8534450535         0.2307093741        -0.8626299311
H         -0.6378111866         0.8812150158        -1.8549157169
H         -0.4905131450        -0.9711958493        -1.7830399462
H          1.9365696786        -0.9180279552        -1.7375813242
H          1.7843677192         0.7678495213        -2.0084355262
H          3.0009085117         0.0938798352        -0.7710006435
          10
ANG Step:         40 Time:      826.8158543539
N          0.0276091037        -0.0964460277        -0.0197785102
N          1.2191534123         0.0738290768        -0.0852969082
C         -0.8115915710         0.0501547567        -1.2592986481
C          2.0533619649        -0.0339345659        -1.2381315973
H         -1.8855403501         0.2434158713        -0.8542312020
H         -0.6517289331         0.9044374409        -1.8600056417
H         -0.4905642865        -0.9795578424        -1.7894828414
H          1.9367255947        -0.9102970586        -1.7620472516
H          1.7836239230         0.7583327928        -2.0068053402
H          2.9999797663         0.1023393237        -0.7471128257
          10
ANG Step:         41 Time:      847.4862507128
N          0.0243472515        -0.0986377183        -0.0209206121
N          1.2227663267         0.0782183324        -0.0883190075
C         -0.8109206634         0.0480064721        -1.2563857605
C          2.0557270259        -0.0369941981        -1.2356067438
H         -1.9128711003         0.2523182613        -0.8489057377
H         -0.6630274487         0.9294569611        -1.8663471817